comment:                                                                
Freq      RMP2-FC                                                     CC-pVDZ             
Number of atoms                            I                3
Info1-9                                    I   N=           9
          17          16           0           0           0         101
           6           2           1
Full Title                                 C   N=           1
comment:    
Route                                      C   N=           8
#P rhf mp2/cc-pvdz # SCF=(xqc) # Freq=() # IOp(7/33=1) # int
=ultrafine # fchk NoSym guess=mix   
Charge                                     I                0
Multiplicity                               I                1
Number of electrons                        I               20
Number of alpha electrons                  I               10
Number of beta electrons                   I               10
Number of basis functions                  I               42
Number of independent functions            I               42
Number of point charges in /Mol/           I                0
Number of translation vectors              I                0
Atomic numbers                             I   N=           3
           7           6           7
Nuclear charges                            R   N=           3
  7.00000000E+00  6.00000000E+00  7.00000000E+00
Current cartesian coordinates              R   N=           9
  1.99361761E+00  3.59998497E-01  0.00000000E+00  0.00000000E+00 -8.40181687E-01
  0.00000000E+00 -1.99361761E+00  3.59998497E-01  0.00000000E+00
Number of symbols in /Mol/                 I                0
Force Field                                I                0
Atom Types                                 C   N=           3
                                    
Int Atom Types                             I   N=           3
           0           0           0
MM charges                                 R   N=           3
  0.00000000E+00  0.00000000E+00  0.00000000E+00
Integer atomic weights                     I   N=           3
          14          12          14
Real atomic weights                        R   N=           3
  1.40030740E+01  1.20000000E+01  1.40030740E+01
Atom fragment info                         I   N=           3
           0           0           0
Atom residue num                           I   N=           3
           0           0           0
Nuclear spins                              I   N=           3
           2           0           2
Nuclear ZEff                               R   N=           3
 -4.55000000E+00 -3.60000000E+00 -4.55000000E+00
Nuclear ZNuc                               R   N=           3
  7.00000000E+00  6.00000000E+00  7.00000000E+00
Nuclear QMom                               R   N=           3
  2.04400000E+00  0.00000000E+00  2.04400000E+00
Nuclear GFac                               R   N=           3
  4.03761000E-01  0.00000000E+00  4.03761000E-01
MicOpt                                     I   N=           3
          -1          -1          -1
Number of residues                         I                0
Number of secondary structures             I                0
Number of contracted shells                I               18
Number of primitive shells                 I               60
Pure/Cartesian d shells                    I                0
Pure/Cartesian f shells                    I                0
Highest angular momentum                   I                2
Largest degree of contraction              I                7
Shell types                                I   N=          18
           0           0           0           1           1          -2
           0           0           0           1           1          -2
           0           0           0           1           1          -2
Number of primitives per shell             I   N=          18
           7           7           1           3           1           1
           7           7           1           3           1           1
           7           7           1           3           1           1
Shell to atom map                          I   N=          18
           1           1           1           1           1           1
           2           2           2           2           2           2
           3           3           3           3           3           3
Primitive exponents                        R   N=          60
  9.04600000E+03  1.35700000E+03  3.09300000E+02  8.77300000E+01  2.85600000E+01
  1.02100000E+01  3.83800000E+00  9.04600000E+03  3.09300000E+02  8.77300000E+01
  2.85600000E+01  1.02100000E+01  3.83800000E+00  7.46600000E-01  2.24800000E-01
  1.35500000E+01  2.91700000E+00  7.97300000E-01  2.18500000E-01  8.17000000E-01
  6.66500000E+03  1.00000000E+03  2.28000000E+02  6.47100000E+01  2.10600000E+01
  7.49500000E+00  2.79700000E+00  6.66500000E+03  2.28000000E+02  6.47100000E+01
  2.10600000E+01  7.49500000E+00  2.79700000E+00  5.21500000E-01  1.59600000E-01
  9.43900000E+00  2.00200000E+00  5.45600000E-01  1.51700000E-01  5.50000000E-01
  9.04600000E+03  1.35700000E+03  3.09300000E+02  8.77300000E+01  2.85600000E+01
  1.02100000E+01  3.83800000E+00  9.04600000E+03  3.09300000E+02  8.77300000E+01
  2.85600000E+01  1.02100000E+01  3.83800000E+00  7.46600000E-01  2.24800000E-01
  1.35500000E+01  2.91700000E+00  7.97300000E-01  2.18500000E-01  8.17000000E-01
Contraction coefficients                   R   N=          60
  7.01708743E-04  5.40299880E-03  2.74729510E-02  1.03514580E-01  2.79586579E-01
  4.51317241E-01  2.80626875E-01  7.77446797E-06  3.00742072E-04 -2.80016549E-03
 -9.89708505E-03 -1.14331114E-01 -1.18162383E-01  1.09786885E+00  1.00000000E+00
  5.89056768E-02  3.20461107E-01  7.53042062E-01  1.00000000E+00  1.00000000E+00
  6.93516317E-04  5.34150243E-03  2.71366714E-02  1.01992385E-01  2.75508636E-01
  4.51086433E-01  2.87565745E-01  7.73354740E-06  2.78072137E-04 -2.57875654E-03
 -8.95087684E-03 -1.06058855E-01 -1.31517686E-01  1.09948660E+00  1.00000000E+00
  5.69792516E-02  3.13207212E-01  7.60376742E-01  1.00000000E+00  1.00000000E+00
  7.01708743E-04  5.40299880E-03  2.74729510E-02  1.03514580E-01  2.79586579E-01
  4.51317241E-01  2.80626875E-01  7.77446797E-06  3.00742072E-04 -2.80016549E-03
 -9.89708505E-03 -1.14331114E-01 -1.18162383E-01  1.09786885E+00  1.00000000E+00
  5.89056768E-02  3.20461107E-01  7.53042062E-01  1.00000000E+00  1.00000000E+00
Coordinates of each shell                  R   N=          54
  1.99361761E+00  3.59998497E-01  0.00000000E+00  1.99361761E+00  3.59998497E-01
  0.00000000E+00  1.99361761E+00  3.59998497E-01  0.00000000E+00  1.99361761E+00
  3.59998497E-01  0.00000000E+00  1.99361761E+00  3.59998497E-01  0.00000000E+00
  1.99361761E+00  3.59998497E-01  0.00000000E+00  0.00000000E+00 -8.40181687E-01
  0.00000000E+00  0.00000000E+00 -8.40181687E-01  0.00000000E+00  0.00000000E+00
 -8.40181687E-01  0.00000000E+00  0.00000000E+00 -8.40181687E-01  0.00000000E+00
  0.00000000E+00 -8.40181687E-01  0.00000000E+00  0.00000000E+00 -8.40181687E-01
  0.00000000E+00 -1.99361761E+00  3.59998497E-01  0.00000000E+00 -1.99361761E+00
  3.59998497E-01  0.00000000E+00 -1.99361761E+00  3.59998497E-01  0.00000000E+00
 -1.99361761E+00  3.59998497E-01  0.00000000E+00 -1.99361761E+00  3.59998497E-01
  0.00000000E+00 -1.99361761E+00  3.59998497E-01  0.00000000E+00
Constraint Structure                       R   N=           9
  1.99361761E+00  3.59998497E-01  0.00000000E+00  0.00000000E+00 -8.40181687E-01
  0.00000000E+00 -1.99361761E+00  3.59998497E-01  0.00000000E+00
Num ILSW                                   I              100
ILSW                                       I   N=         100
           0           0           0           0           2           0
           0           0           3           0           0          -1
           5           0           0           0           2           0
           0           0           0           0           1           0
           1           1           0           0           0           0
           0           0      100000           0          -1           0
           0           0           0           0           0           0
           0           0           0           1           1           0
           0           0           1           0           0           0
           0           0           4          41           0           0
           0           0           0           0           0           0
           0           0           0           3           0           0
           0           0           0           0           0           0
           0           0           0           0           0           0
           0           0           0           0           0           0
           0           0           0           0           0           0
           0           0           0           0
Num RLSW                                   I               41
RLSW                                       R   N=          41
  1.00000000E+00  1.00000000E+00  1.00000000E+00  1.00000000E+00  1.00000000E+00
  0.00000000E+00  0.00000000E+00  1.00000000E+00  0.00000000E+00  0.00000000E+00
  0.00000000E+00  0.00000000E+00  1.00000000E+00  0.00000000E+00  0.00000000E+00
  0.00000000E+00  0.00000000E+00  1.00000000E+00  0.00000000E+00  0.00000000E+00
  0.00000000E+00  0.00000000E+00  1.00000000E+00  0.00000000E+00  0.00000000E+00
  0.00000000E+00  0.00000000E+00  1.00000000E+00  0.00000000E+00  0.00000000E+00
  0.00000000E+00  0.00000000E+00  1.00000000E+00  0.00000000E+00  0.00000000E+00
  0.00000000E+00  0.00000000E+00  0.00000000E+00  1.00000000E+00  1.00000000E+00
  0.00000000E+00
MxBond                                     I                2
NBond                                      I   N=           3
           1           2           1
IBond                                      I   N=           6
           2           0           1           3           2           0
RBond                                      R   N=           6
  2.00000000E+00  0.00000000E+00  2.00000000E+00  2.00000000E+00  2.00000000E+00
  0.00000000E+00
Virial Ratio                               R      2.000778520861554E+00
SCF Energy                                 R     -1.465915373351534E+02
MP2 Energy                                 R     -1.469862188818088E+02
Total Energy                               R     -1.469862188818088E+02
Post-SCF wavefunction norm                 R      1.515869390518198E+00
RMS Force                                  R      2.423991732247454E-02
RMS Density                                R      5.055246434298687E-09
Job Status                                 I                1
Nuclear derivative order                   I                2
External E-field                           R   N=          35
  0.00000000E+00  0.00000000E+00  0.00000000E+00  0.00000000E+00  0.00000000E+00
  0.00000000E+00  0.00000000E+00  0.00000000E+00  0.00000000E+00  0.00000000E+00
  0.00000000E+00  0.00000000E+00  0.00000000E+00  0.00000000E+00  0.00000000E+00
  0.00000000E+00  0.00000000E+00  0.00000000E+00  0.00000000E+00  0.00000000E+00
  0.00000000E+00  0.00000000E+00  0.00000000E+00  0.00000000E+00  0.00000000E+00
  0.00000000E+00  0.00000000E+00  0.00000000E+00  0.00000000E+00  0.00000000E+00
  0.00000000E+00  0.00000000E+00  0.00000000E+00  0.00000000E+00  0.00000000E+00
IOpCl                                      I                0
IROHF                                      I                0
Alpha Orbital Energies                     R   N=          42
 -1.56800650E+01 -1.56800640E+01 -1.13550849E+01 -1.34536940E+00 -1.14122901E+00
 -6.75582401E-01 -6.20654838E-01 -6.06146787E-01 -5.50740910E-01 -4.27542445E-01
  1.71530474E-02  7.36969557E-02  2.07482318E-01  4.35277330E-01  4.45268931E-01
  6.49114746E-01  6.68294802E-01  8.09809683E-01  8.18442431E-01  9.02115253E-01
  9.20787468E-01  9.65054803E-01  1.02080956E+00  1.04099416E+00  1.10887261E+00
  1.33301021E+00  1.34731378E+00  1.41981311E+00  1.56526114E+00  1.62625186E+00
  1.88360531E+00  1.93519274E+00  2.05276628E+00  2.08349929E+00  2.23765463E+00
  2.32487866E+00  2.56874632E+00  2.58220551E+00  2.72145236E+00  2.91025683E+00
  2.96810916E+00  3.06018565E+00
Alpha MO coefficients                      R   N=        1764
  7.05297580E-01  1.14446641E-02 -4.75002608E-03 -1.61459025E-03 -1.02127047E-03
 -3.57780314E-12  1.31968649E-03  1.05450766E-03  1.66652395E-12  1.41785043E-04
 -6.42107674E-12  1.47116308E-11  3.11461431E-04  5.20306344E-04  3.79688413E-10
 -2.04258628E-09  1.30593005E-08 -6.79919720E-04 -1.27422509E-09  3.32865486E-16
  2.29004069E-03  4.52921968E-09  9.52204151E-16  1.20988482E-09  2.56101527E-12
  6.36440848E-16 -1.47597944E-09 -1.01023164E-03 -7.05293741E-01 -1.14446040E-02
  4.75000113E-03 -1.61458207E-03  1.02126533E-03  3.57852097E-12  1.31967882E-03
 -1.05450449E-03 -1.66780545E-12 -1.41785493E-04 -6.42154566E-12 -1.47125069E-11
 -3.11460292E-04  5.20303555E-04  7.05252389E-01  1.10368017E-02 -4.58263571E-03
 -1.50292673E-03 -9.44126904E-04 -6.09614952E-12  1.40971157E-03  5.80862834E-04
  1.03638620E-12 -8.27432690E-05 -5.61127451E-12  1.36902553E-11  2.09217801E-04
  5.12355946E-04  1.39508393E-04 -7.50507509E-04  4.79837879E-03  1.85047325E-09
 -4.68189147E-04  1.14498462E-12 -6.23258846E-09  1.66417084E-03 -7.45295492E-13
  4.44548684E-04 -7.24691626E-17 -1.50654793E-13 -5.42319819E-04  2.74945168E-09
  7.05256228E-01  1.10368640E-02 -4.58266157E-03  1.50293552E-03 -9.44132463E-04
 -6.09603495E-12 -1.40971875E-03  5.80868574E-04  1.03630268E-12 -8.27424972E-05
  5.61135654E-12  1.36902817E-11  2.09219496E-04 -5.12358778E-04 -5.83556743E-04
 -6.80778921E-05 -7.93393833E-04 -8.94308401E-05  9.12174069E-05 -1.27738067E-14
  7.40227929E-04  6.63952908E-04  2.27271407E-13  8.34899598E-05 -2.93958908E-12
 -1.62455765E-12  1.60757483E-04 -9.91283348E-05  9.97112384E-01  1.70358560E-02
 -1.69799854E-03  1.21760215E-14  1.27899387E-03 -2.88816858E-11  6.35233975E-15
  2.03048370E-04  1.03540625E-11 -1.04571837E-03 -3.78847603E-16 -6.63885151E-12
  8.93459750E-04  1.86324260E-15 -5.83556743E-04 -6.80778921E-05 -7.93393833E-04
  8.94308401E-05  9.12174069E-05 -1.27342126E-14 -7.40227929E-04  6.63952908E-04
  2.26994019E-13  8.34899598E-05  2.93939497E-12 -1.62439507E-12  1.60757483E-04
  9.91283348E-05 -1.18719946E-01  2.50449364E-01  2.05539879E-01 -1.23226518E-01
 -5.63057670E-02 -6.30829442E-11 -4.02721347E-02 -1.52946923E-02 -1.29699880E-10
 -8.47069980E-03  2.53943997E-11  2.68787736E-11  1.09375090E-02  1.34655489E-02
 -1.52273103E-01  3.11098063E-01  8.54416085E-02  1.69164741E-12  1.36354533E-01
  1.33675535E-10  1.31051864E-13 -5.80948162E-03  1.65329219E-10 -2.30794069E-02
  3.50800384E-16 -1.54182453E-10  9.72309439E-03  2.08875004E-13 -1.18719946E-01
  2.50449364E-01  2.05539879E-01  1.23226518E-01 -5.63057670E-02 -6.30830355E-11
  4.02721347E-02 -1.52946923E-02 -1.29699607E-10 -8.47069980E-03 -2.53942107E-11
  2.68784645E-11  1.09375090E-02 -1.34655489E-02 -1.44265851E-01  3.07816494E-01
  2.78715497E-01 -7.69459084E-02 -7.61787554E-02  9.74953679E-11 -1.91945736E-02
 -2.29048212E-02  7.72211456E-11 -5.63514959E-03 -3.84206056E-11  8.31775804E-11
  4.48248950E-04  1.48093915E-02  9.15966938E-13 -1.92533271E-12 -4.38924549E-13
  3.30382110E-01 -8.89610928E-13 -5.14625097E-16  3.52405305E-02  7.51594350E-14
  4.73126803E-16  1.20780236E-13  2.16611627E-11 -4.52213339E-16  7.32690336E-15
  3.84769106E-02  1.44265851E-01 -3.07816494E-01 -2.78715497E-01 -7.69459084E-02
  7.61787554E-02 -9.74950171E-11 -1.91945736E-02  2.29048212E-02 -7.72213501E-11
  5.63514959E-03 -3.84208221E-11 -8.31778543E-11 -4.48248950E-04  1.48093915E-02
 -9.34388601E-02  2.16261909E-01  3.07717100E-01  2.43298337E-01  1.80200142E-01
  1.90539269E-09  1.46125082E-01  1.04669466E-01  9.92455018E-10  1.05696024E-02
 -9.32235325E-11  2.44991779E-11 -5.16192432E-03 -1.78445276E-02  1.12172972E-01
 -2.82138998E-01 -1.20710920E-01 -6.03752420E-12  1.03004019E-02  9.89367640E-10
 -6.96065483E-13  6.74509535E-02 -1.10345370E-10  3.62492772E-03  2.00904948E-16
  1.95990864E-10 -6.21642972E-03 -1.73986345E-13 -9.34388601E-02  2.16261909E-01
  3.07717100E-01 -2.43298337E-01  1.80200142E-01  1.90539141E-09 -1.46125082E-01
  1.04669466E-01  9.92454052E-10  1.05696024E-02  9.32236072E-11  2.44993578E-11
 -5.16192432E-03  1.78445276E-02  8.08612094E-10 -1.55374468E-09 -2.74249714E-09
 -6.59151581E-09  6.43637420E-09  3.51143992E-01 -4.41260922E-09  3.93673921E-09
  2.09529236E-01 -1.76975585E-10 -2.52822052E-02 -1.60702393E-02  5.32755101E-10
  1.11240313E-11  1.03799801E-10  6.37526309E-10 -2.88907100E-09 -3.46640463E-15
  5.31750061E-09  3.42357188E-01 -9.21082111E-16  1.14496186E-09  1.58420323E-01
  3.65919586E-11  4.12569232E-13  3.39675494E-02 -1.39764316E-09  2.74488975E-17
  8.08613707E-10 -1.55374819E-09 -2.74250338E-09  6.59152152E-09  6.43636770E-09
  3.51143992E-01  4.41261419E-09  3.93673636E-09  2.09529236E-01 -1.76975824E-10
  2.52822052E-02 -1.60702393E-02  5.32754823E-10 -1.11244561E-11  6.30679993E-02
 -1.43522138E-01 -2.59671976E-01 -2.91293896E-01 -2.36065731E-01 -2.41300812E-09
 -1.69406936E-01 -1.39288510E-01 -1.29657098E-09 -1.27691464E-02  1.27376934E-10
 -2.37421667E-11  2.07259297E-03  2.22900655E-02  2.14542852E-12 -5.38160069E-12
 -3.14024031E-12  3.40137837E-01  1.58019963E-12  3.68746781E-15  3.63932333E-02
  1.94621907E-12  2.78703936E-15  1.69824001E-14 -1.32863003E-10  3.54042180E-16
 -2.31916326E-13  7.83223982E-03 -6.30679993E-02  1.43522138E-01  2.59671976E-01
 -2.91293896E-01  2.36065731E-01  2.41301666E-09 -1.69406936E-01  1.39288510E-01
  1.29657450E-09  1.27691464E-02  1.27377459E-10  2.37418822E-11 -2.07259297E-03
  2.22900655E-02  1.21250289E-02 -2.67818203E-02 -4.15062666E-02 -2.17542789E-01
  1.34890212E-01 -6.91278059E-09 -1.51350298E-01  8.06240265E-02 -4.57125132E-09
 -7.09008470E-03  6.84786579E-10  1.96233386E-10  2.66045033E-02 -6.32091410E-03
  5.23136156E-02 -1.06249795E-01 -3.19897880E-01 -1.02470563E-12  4.35607879E-01
 -6.76391346E-09 -1.40916275E-13  2.07616913E-01 -3.91022560E-09 -3.50783058E-03
  5.37629914E-16 -1.16639785E-09 -5.78644540E-02  7.44232282E-14  1.21250289E-02
 -2.67818203E-02 -4.15062666E-02  2.17542789E-01  1.34890212E-01 -6.91278349E-09
  1.51350298E-01  8.06240265E-02 -4.57125298E-09 -7.09008470E-03 -6.84786331E-10
  1.96233184E-10  2.66045033E-02  6.32091410E-03 -8.52386859E-11  3.68894370E-10
  1.18102455E-09 -8.85423547E-09  7.33786557E-09  4.54635340E-01 -6.98076209E-09
  5.08124608E-09  3.54438156E-01 -1.68529472E-10 -1.70205861E-02 -1.20194367E-02
  4.58402446E-10  2.37364024E-10 -4.14672494E-16 -1.93265492E-16  7.83773322E-15
  2.83362412E-09 -1.38230499E-15 -2.16668564E-12 -2.79580495E-09  1.16645904E-15
 -1.23275364E-12 -2.34026609E-16  6.90896325E-02 -2.16342304E-13  2.68813548E-16
  8.70318533E-10  8.52390520E-11 -3.68894282E-10 -1.18103196E-09 -8.85423637E-09
 -7.33786532E-09 -4.54635340E-01 -6.98076456E-09 -5.08124519E-09 -3.54438156E-01
  1.68529564E-10 -1.70205861E-02  1.20194367E-02 -4.58402660E-10  2.37364103E-10
  2.53906975E-02 -4.11780697E-02 -2.89899415E-01  2.99366169E-01 -2.76380607E-01
  9.34134559E-09  3.51826616E-01 -2.52698109E-01  9.81805647E-09  1.25774224E-03
 -3.43343308E-10 -2.19954153E-10 -1.94488683E-02 -3.18725181E-03  7.05423809E-13
 -7.15172262E-13 -9.47436522E-12 -1.91913536E-02  4.29877307E-12  2.46712219E-16
  3.43363116E-01  3.98537044E-12  8.84247931E-16 -6.75921672E-15  1.15945522E-09
  3.81988924E-17  2.89630175E-13 -3.86585633E-02 -2.53906975E-02  4.11780697E-02
  2.89899415E-01  2.99366169E-01  2.76380607E-01 -9.34134557E-09  3.51826616E-01
  2.52698109E-01 -9.81805686E-09 -1.25774224E-03 -3.43343270E-10  2.19954161E-10
  1.94488683E-02 -3.18725181E-03  3.14748446E-02 -8.50050884E-02 -2.14059706E-01
 -2.63735985E-02  3.14110250E-01 -1.13684709E-10 -4.10076092E-02  4.50000535E-01
  1.82318916E-10  3.56029890E-03  3.32941936E-10  1.15469236E-10 -2.40494164E-03
 -1.52900916E-02 -6.02639313E-02  4.38641426E-02  8.55274157E-01  3.69520526E-13
 -3.00313580E-01 -5.95437046E-09  6.72429693E-12 -2.91187414E-01 -7.47388271E-09
 -6.41207393E-04 -5.45605877E-16 -2.16571544E-10 -3.46716054E-02 -5.75773914E-13
  3.14748446E-02 -8.50050884E-02 -2.14059706E-01  2.63735985E-02  3.14110250E-01
 -1.13684040E-10  4.10076092E-02  4.50000536E-01  1.82319881E-10  3.56029890E-03
 -3.32942168E-10  1.15469357E-10 -2.40494164E-03  1.52900916E-02  3.12398302E-10
 -1.02254781E-09 -4.35360086E-09  7.17692335E-10  1.42687045E-09 -2.86541864E-01
  1.17246942E-09  4.41703608E-09 -5.11740198E-01  6.31696383E-11 -1.30820780E-02
 -1.51792845E-02  1.60558416E-10 -3.63612507E-10 -3.47323046E-10 -9.52633009E-10
  1.29264061E-08 -6.25087430E-16 -1.44109773E-09  4.73144926E-01  2.13393891E-15
  6.43558834E-10  9.03585445E-01 -2.42809914E-10  3.34968623E-13 -2.00055089E-02
 -3.95373338E-10  6.80101702E-16  3.12398455E-10 -1.02254815E-09 -4.35359864E-09
 -7.17692509E-10  1.42686963E-09 -2.86541864E-01 -1.17247003E-09  4.41703560E-09
 -5.11740198E-01  6.31695070E-11  1.30820780E-02 -1.51792845E-02  1.60558467E-10
  3.63612126E-10  6.74322499E-02 -4.50813515E-02 -1.99282253E+00 -7.96965937E-02
  1.61882344E-01 -6.58839420E-10  3.98851148E-01  7.81169496E-01 -1.54256201E-09
  1.59798542E-02 -3.57205241E-11  6.89693333E-11 -2.17377635E-02 -2.98078742E-02
  5.44971517E-13  1.51357510E-13 -3.20865432E-11  6.98001895E-02  1.13267013E-12
 -7.14811763E-16  2.93612163E+00 -1.80324531E-11 -1.16767574E-15  4.45189515E-13
  2.10040253E-11  5.14228021E-16 -5.11620371E-13  8.17485522E-02 -6.74322499E-02
  4.50813515E-02  1.99282253E+00 -7.96965937E-02 -1.61882344E-01  6.58840000E-10
  3.98851148E-01 -7.81169496E-01  1.54256324E-09 -1.59798542E-02 -3.57208507E-11
 -6.89695113E-11  2.17377635E-02 -2.98078742E-02  8.26498471E-02 -3.05427141E-02
 -2.50812803E+00  5.85031079E-02 -5.34189383E-02  6.35069500E-10  1.23832887E+00
  1.81785462E-01  1.31300419E-09  4.70678230E-02 -1.11110942E-10  5.88511829E-11
 -2.80522039E-02 -2.12671149E-02 -7.08531743E-02 -7.27725413E-02  4.45322012E+00
  8.60291061E-13 -5.70129120E-02  2.50872824E-10  1.89791822E-11  2.60530579E+00
 -2.30943837E-09 -5.03231226E-02  6.07544310E-16 -7.43833849E-11  7.30131952E-02
  4.32074230E-13  8.26498471E-02 -3.05427141E-02 -2.50812803E+00 -5.85031079E-02
 -5.34189383E-02  6.35068609E-10 -1.23832887E+00  1.81785462E-01  1.31300542E-09
  4.70678230E-02  1.11110594E-10  5.88513909E-11 -2.80522039E-02  2.12671149E-02
  6.26599015E-10 -2.51568173E-09 -9.27617963E-09 -4.90950396E-10  2.37040245E-10
 -9.50062539E-02  7.34092826E-09  3.31317755E-09 -7.98389796E-02  1.90591664E-10
  6.41697459E-02  3.10400379E-02  6.84618918E-10 -4.07263067E-10  8.03589855E-11
 -1.02040699E-08  3.25402966E-08  1.99385905E-15  1.26206441E-08 -9.57041851E-01
  4.43321814E-15 -2.84160887E-09  1.16271329E+00  7.26699590E-10 -3.47446422E-13
 -5.41745264E-02 -5.96923333E-10  9.78212615E-16  6.26598736E-10 -2.51568345E-09
 -9.27616885E-09  4.90951940E-10  2.37043649E-10 -9.50062539E-02 -7.34092494E-09
  3.31316945E-09 -7.98389796E-02  1.90590812E-10 -6.41697459E-02  3.10400379E-02
  6.84619098E-10  4.07262136E-10  3.75002389E-02 -1.68269206E-01 -5.24345954E-01
 -3.57562067E-02  5.67883349E-03  1.45480814E-09  4.58343380E-01  1.57259260E-01
  2.86688555E-09  9.97279404E-03 -9.21473063E-10 -3.81817707E-10  5.31622559E-02
 -3.01302011E-02  1.04331982E-02 -7.36189038E-01  2.03457829E+00 -1.45394254E-13
  8.62523983E-01  1.40666281E-08 -2.38896788E-12 -2.69985334E-01 -1.84074547E-08
  4.23982997E-02  9.94620028E-16  3.28933709E-10 -5.37676605E-02  2.81092615E-13
  3.75002389E-02 -1.68269206E-01 -5.24345954E-01  3.57562067E-02  5.67883349E-03
  1.45480615E-09 -4.58343380E-01  1.57259260E-01  2.86688829E-09  9.97279404E-03
  9.21472937E-10 -3.81817074E-10  5.31622559E-02  3.01302011E-02  5.91621192E-02
 -1.70630421E-01 -2.37441963E-01 -3.20560505E-02 -1.33112985E-01  9.32491925E-11
  7.01681659E-01  5.54595524E-01 -2.82024069E-10 -5.07427561E-02 -4.65673597E-11
 -1.31702611E-11  5.42496518E-03  8.35751098E-02 -2.07689460E-12  8.23458846E-11
 -2.97100493E-11  9.04827498E-01  2.11999916E-11  2.59073567E-15 -2.35221724E-01
 -8.34690733E-12 -5.10393231E-16  3.08103741E-12  2.88327834E-10  1.21508838E-15
 -8.57788762E-12 -1.39983338E-01 -5.91621192E-02  1.70630421E-01  2.37441963E-01
 -3.20560505E-02  1.33112985E-01 -9.32481100E-11  7.01681659E-01 -5.54595524E-01
  2.82020971E-10  5.07427561E-02 -4.65669903E-11  1.31700621E-11 -5.42496518E-03
  8.35751098E-02  3.86851982E-02  7.74623545E-03 -1.34889624E-01 -4.55297035E-02
  1.74860224E-01 -3.06528933E-10  5.66344581E-01  1.12120817E-01 -5.99233707E-10
 -5.37073901E-02 -7.26535041E-11  7.11740836E-11  6.21962704E-02  8.75484939E-02
 -4.00744456E-02  1.39105827E+00 -4.88177146E-01 -5.21787223E-11  3.55339033E-01
  5.54940490E-11  1.21413776E-11 -8.14847692E-02  2.23044409E-10  6.81340134E-02
 -1.32483832E-15 -8.12221686E-11 -1.70051963E-01  8.38217390E-12  3.86851982E-02
  7.74623543E-03 -1.34889624E-01  4.55297035E-02  1.74860224E-01 -3.06537462E-10
 -5.66344581E-01  1.12120817E-01 -5.99223754E-10 -5.37073901E-02  7.26524360E-11
  7.11733007E-11  6.21962704E-02 -8.75484940E-02  9.11585470E-03 -4.75834983E-02
 -4.11443259E-01 -2.23449024E-01 -5.00372293E-01 -1.24790446E-09  4.54988958E-01
  9.44275218E-01  2.94161809E-09  4.00608997E-04 -1.24918693E-10  9.96937968E-11
 -3.07925701E-02 -3.69524756E-02  6.77653574E-02  2.58014968E-01  9.97148025E-01
 -1.02657392E-11  9.09134330E-02  8.52022908E-10  1.05953620E-11 -2.63854446E-01
 -2.84621588E-09 -2.62816653E-01  6.82947755E-15  6.89607626E-10  3.25572851E-01
  9.47488409E-12  9.11585470E-03 -4.75834983E-02 -4.11443259E-01  2.23449024E-01
 -5.00372293E-01 -1.24793912E-09 -4.54988958E-01  9.44275218E-01  2.94166681E-09
  4.00608995E-04  1.24915958E-10  9.96948040E-11 -3.07925701E-02  3.69524756E-02
  2.73586170E-03 -6.18151808E-02 -4.10803934E-01 -5.18259130E-01 -1.30018971E-01
 -3.57231884E-09  9.07160811E-01  3.83980144E-02  5.12098490E-09  4.68426686E-02
  1.85844841E-10  1.93930060E-11  1.47477085E-02 -8.51069500E-02 -1.00691112E-12
 -6.61607010E-12 -1.98450979E-11 -2.42595434E-01 -5.00863014E-12  6.91916797E-16
  3.15583297E-01  8.49540997E-12 -4.39328725E-15  4.29342289E-12 -1.68284047E-09
 -5.60571159E-16 -7.42936948E-12  4.59282264E-01 -2.73586170E-03  6.18151808E-02
  4.10803934E-01 -5.18259130E-01  1.30018971E-01  3.57231476E-09  9.07160811E-01
 -3.83980144E-02 -5.12097755E-09 -4.68426686E-02  1.85844717E-10 -1.93927793E-11
 -1.47477085E-02 -8.51069500E-02 -4.51533110E-11 -5.98349970E-11  7.46306114E-10
  3.01717278E-09 -1.21046632E-09 -6.27987339E-01 -6.76467122E-09  4.26974256E-09
  8.93837310E-01 -8.21597903E-11  3.55619203E-02  6.07579221E-03 -2.76990372E-10
  4.16150637E-10  1.36541909E-15  1.63652698E-14  2.40363765E-14  2.18424410E-10
  7.06428845E-15  4.80252191E-12  3.02785017E-09 -1.20568962E-14 -1.81400434E-11
 -5.04691990E-15 -2.79969907E-01 -9.58393824E-13  8.73847413E-15 -2.27424288E-09
  4.51547948E-11  5.98282038E-11 -7.46325673E-10  3.01718064E-09  1.21043636E-09
  6.27987339E-01 -6.76469993E-09 -4.26968204E-09 -8.93837310E-01  8.21589798E-11
  3.55619203E-02 -6.07579221E-03  2.76990764E-10  4.16150844E-10  1.30731873E-10
  6.42039288E-10  8.11685773E-09  1.23124493E-08 -3.70653320E-09 -6.97584706E-01
 -1.37926575E-08  4.92397264E-09  1.04533809E+00 -6.87262234E-10 -1.25253002E-02
  3.11826557E-02  1.36236021E-09  5.56426355E-10 -1.11446773E-09  5.73462507E-09
 -2.06256446E-08 -2.60814061E-15  4.16294518E-09  2.25481551E-01  3.62198130E-15
 -1.39467731E-08 -9.71296584E-01  4.62833358E-09  5.65547258E-12 -5.76079620E-02
 -3.17416086E-10  4.56096256E-17  1.30732358E-10  6.42047805E-10  8.11684504E-09
 -1.23124409E-08 -3.70651861E-09 -6.97584706E-01  1.37926407E-08  4.92395643E-09
  1.04533809E+00 -6.87263949E-10  1.25253002E-02  3.11826557E-02  1.36236337E-09
 -5.56426025E-10 -1.01359157E-02 -8.39295013E-02 -1.90788310E-01 -6.44781540E-01
  2.86028234E-01 -1.33558753E-08  6.19366332E-01 -3.99375028E-01  1.79711896E-08
  2.60160581E-02 -1.33941616E-10  4.11868260E-10 -6.51858093E-02 -3.90151957E-02
  4.96993863E-02 -2.96285613E-01  6.96092231E-01  4.60854628E-12 -3.18255030E-01
  3.70117899E-09 -1.28289386E-11  7.23610498E-01 -1.64257357E-08 -2.47044192E-01
 -2.61050350E-15 -1.03979307E-09 -9.92452015E-02 -4.08129669E-12 -1.01359157E-02
 -8.39295013E-02 -1.90788310E-01  6.44781540E-01  2.86028234E-01 -1.33558695E-08
 -6.19366332E-01 -3.99375028E-01  1.79711807E-08  2.60160581E-02  1.33940889E-10
  4.11867495E-10 -6.51858093E-02  3.90151957E-02 -6.90709523E-03 -1.30220039E-01
 -1.07310113E-01  1.31665956E-01 -7.04785635E-01  3.28747041E-09 -4.12767006E-01
  8.42789515E-01 -2.56763816E-09  5.54715629E-02 -1.24392957E-10 -1.02299640E-10
 -5.44431907E-02 -1.34301819E-02  1.25224722E-13 -8.32436112E-13 -2.66980561E-12
 -3.91166875E-01 -2.68064834E-12 -7.32892487E-16  8.28075092E-01  5.09678726E-12
  1.07970526E-14 -8.09432742E-13  1.54993406E-09  4.43272615E-15 -3.42161648E-12
  3.41506157E-02  6.90709523E-03  1.30220039E-01  1.07310113E-01  1.31665956E-01
  7.04785635E-01 -3.28745323E-09 -4.12767006E-01 -8.42789515E-01  2.56760969E-09
 -5.54715629E-02 -1.24391571E-10  1.02300198E-10  5.44431907E-02 -1.34301819E-02
 -1.16701597E-03  7.19711426E-01 -1.61938369E+00 -1.89004197E-01  1.82672679E-01
 -2.94508316E-09  4.95349652E-01  2.89924840E-01 -2.29617471E-09  1.35496008E-01
 -2.42602786E-09  1.60393222E-09 -7.39532768E-02  1.47354135E-01  2.73201791E-02
 -1.11941129E-01  2.05247158E+00 -3.44004007E-13  1.73675143E-01 -1.47812413E-09
  2.98314573E-12  4.44490281E-01  4.42088366E-09  3.73476698E-01 -8.03627264E-15
  1.16178611E-08  5.60844639E-01  3.10137802E-13 -1.16701597E-03  7.19711426E-01
 -1.61938369E+00  1.89004197E-01  1.82672679E-01 -2.94508876E-09 -4.95349652E-01