comment:                                                                
Force     UMP2-FC                                                     CC-pVDZ             
Number of atoms                            I                3
Info1-9                                    I   N=           9
          16          15           0           0           0         100
           5           2           1
Full Title                                 C   N=           1
comment:    
Route                                      C   N=           7
#P uhf mp2/cc-pvdz # SCF=(xqc) # Force=() # int=ultrafine # 
fchk NoSym guess=mix    
Charge                                     I                0
Multiplicity                               I                3
Number of electrons                        I               20
Number of alpha electrons                  I               11
Number of beta electrons                   I                9
Number of basis functions                  I               42
Number of independent functions            I               42
Number of point charges in /Mol/           I                0
Number of translation vectors              I                0
Atomic numbers                             I   N=           3
           7           6           7
Nuclear charges                            R   N=           3
  7.00000000E+00  6.00000000E+00  7.00000000E+00
Current cartesian coordinates              R   N=           9
  1.99361761E+00  3.59998724E-01  0.00000000E+00  0.00000000E+00 -8.40181461E-01
  0.00000000E+00 -1.99361761E+00  3.59998724E-01  0.00000000E+00
Number of symbols in /Mol/                 I                0
Force Field                                I                0
Atom Types                                 C   N=           3
                                    
Int Atom Types                             I   N=           3
           0           0           0
MM charges                                 R   N=           3
  0.00000000E+00  0.00000000E+00  0.00000000E+00
Integer atomic weights                     I   N=           3
          14          12          14
Real atomic weights                        R   N=           3
  1.40030740E+01  1.20000000E+01  1.40030740E+01
Atom fragment info                         I   N=           3
           0           0           0
Atom residue num                           I   N=           3
           0           0           0
Nuclear spins                              I   N=           3
           2           0           2
Nuclear ZEff                               R   N=           3
 -4.55000000E+00 -3.60000000E+00 -4.55000000E+00
Nuclear ZNuc                               R   N=           3
  7.00000000E+00  6.00000000E+00  7.00000000E+00
Nuclear QMom                               R   N=           3
  2.04400000E+00  0.00000000E+00  2.04400000E+00
Nuclear GFac                               R   N=           3
  4.03761000E-01  0.00000000E+00  4.03761000E-01
MicOpt                                     I   N=           3
          -1          -1          -1
Number of residues                         I                0
Number of secondary structures             I                0
Number of contracted shells                I               18
Number of primitive shells                 I               60
Pure/Cartesian d shells                    I                0
Pure/Cartesian f shells                    I                0
Highest angular momentum                   I                2
Largest degree of contraction              I                7
Shell types                                I   N=          18
           0           0           0           1           1          -2
           0           0           0           1           1          -2
           0           0           0           1           1          -2
Number of primitives per shell             I   N=          18
           7           7           1           3           1           1
           7           7           1           3           1           1
           7           7           1           3           1           1
Shell to atom map                          I   N=          18
           1           1           1           1           1           1
           2           2           2           2           2           2
           3           3           3           3           3           3
Primitive exponents                        R   N=          60
  9.04600000E+03  1.35700000E+03  3.09300000E+02  8.77300000E+01  2.85600000E+01
  1.02100000E+01  3.83800000E+00  9.04600000E+03  3.09300000E+02  8.77300000E+01
  2.85600000E+01  1.02100000E+01  3.83800000E+00  7.46600000E-01  2.24800000E-01
  1.35500000E+01  2.91700000E+00  7.97300000E-01  2.18500000E-01  8.17000000E-01
  6.66500000E+03  1.00000000E+03  2.28000000E+02  6.47100000E+01  2.10600000E+01
  7.49500000E+00  2.79700000E+00  6.66500000E+03  2.28000000E+02  6.47100000E+01
  2.10600000E+01  7.49500000E+00  2.79700000E+00  5.21500000E-01  1.59600000E-01
  9.43900000E+00  2.00200000E+00  5.45600000E-01  1.51700000E-01  5.50000000E-01
  9.04600000E+03  1.35700000E+03  3.09300000E+02  8.77300000E+01  2.85600000E+01
  1.02100000E+01  3.83800000E+00  9.04600000E+03  3.09300000E+02  8.77300000E+01
  2.85600000E+01  1.02100000E+01  3.83800000E+00  7.46600000E-01  2.24800000E-01
  1.35500000E+01  2.91700000E+00  7.97300000E-01  2.18500000E-01  8.17000000E-01
Contraction coefficients                   R   N=          60
  7.01708743E-04  5.40299880E-03  2.74729510E-02  1.03514580E-01  2.79586579E-01
  4.51317241E-01  2.80626875E-01  7.77446797E-06  3.00742072E-04 -2.80016549E-03
 -9.89708505E-03 -1.14331114E-01 -1.18162383E-01  1.09786885E+00  1.00000000E+00
  5.89056768E-02  3.20461107E-01  7.53042062E-01  1.00000000E+00  1.00000000E+00
  6.93516317E-04  5.34150243E-03  2.71366714E-02  1.01992385E-01  2.75508636E-01
  4.51086433E-01  2.87565745E-01  7.73354740E-06  2.78072137E-04 -2.57875654E-03
 -8.95087684E-03 -1.06058855E-01 -1.31517686E-01  1.09948660E+00  1.00000000E+00
  5.69792516E-02  3.13207212E-01  7.60376742E-01  1.00000000E+00  1.00000000E+00
  7.01708743E-04  5.40299880E-03  2.74729510E-02  1.03514580E-01  2.79586579E-01
  4.51317241E-01  2.80626875E-01  7.77446797E-06  3.00742072E-04 -2.80016549E-03
 -9.89708505E-03 -1.14331114E-01 -1.18162383E-01  1.09786885E+00  1.00000000E+00
  5.89056768E-02  3.20461107E-01  7.53042062E-01  1.00000000E+00  1.00000000E+00
Coordinates of each shell                  R   N=          54
  1.99361761E+00  3.59998724E-01  0.00000000E+00  1.99361761E+00  3.59998724E-01
  0.00000000E+00  1.99361761E+00  3.59998724E-01  0.00000000E+00  1.99361761E+00
  3.59998724E-01  0.00000000E+00  1.99361761E+00  3.59998724E-01  0.00000000E+00
  1.99361761E+00  3.59998724E-01  0.00000000E+00  0.00000000E+00 -8.40181461E-01
  0.00000000E+00  0.00000000E+00 -8.40181461E-01  0.00000000E+00  0.00000000E+00
 -8.40181461E-01  0.00000000E+00  0.00000000E+00 -8.40181461E-01  0.00000000E+00
  0.00000000E+00 -8.40181461E-01  0.00000000E+00  0.00000000E+00 -8.40181461E-01
  0.00000000E+00 -1.99361761E+00  3.59998724E-01  0.00000000E+00 -1.99361761E+00
  3.59998724E-01  0.00000000E+00 -1.99361761E+00  3.59998724E-01  0.00000000E+00
 -1.99361761E+00  3.59998724E-01  0.00000000E+00 -1.99361761E+00  3.59998724E-01
  0.00000000E+00 -1.99361761E+00  3.59998724E-01  0.00000000E+00
Constraint Structure                       R   N=           9
  1.99361761E+00  3.59998724E-01  0.00000000E+00  0.00000000E+00 -8.40181461E-01
  0.00000000E+00 -1.99361761E+00  3.59998724E-01  0.00000000E+00
Num ILSW                                   I              100
ILSW                                       I   N=         100
           1           0           0           0           2           0
           0           0           3           0           0          -1
           5           0           0           0           2           0
           0           0           0           0           1           0
           1           1           0           0           0           0
           0           0      100000           0          -1           0
           0           0           0           0           0           0
           0           0           0           1           0           0
           0           0           1           0           0           0
           0           0           4          41           0           0
           0           0           0           0           0           0
           0           0           0           3           0           0
           0           0           0           0           0           0
           0           0           0           0           0           0
           0           0           0           0           0           0
           0           0           0           0           0           0
           0           0           0           0
Num RLSW                                   I               41
RLSW                                       R   N=          41
  1.00000000E+00  1.00000000E+00  1.00000000E+00  1.00000000E+00  1.00000000E+00
  0.00000000E+00  0.00000000E+00  1.00000000E+00  0.00000000E+00  0.00000000E+00
  0.00000000E+00  0.00000000E+00  1.00000000E+00  0.00000000E+00  0.00000000E+00
  0.00000000E+00  0.00000000E+00  1.00000000E+00  0.00000000E+00  0.00000000E+00
  0.00000000E+00  0.00000000E+00  1.00000000E+00  0.00000000E+00  0.00000000E+00
  0.00000000E+00  0.00000000E+00  1.00000000E+00  0.00000000E+00  0.00000000E+00
  0.00000000E+00  0.00000000E+00  1.00000000E+00  0.00000000E+00  0.00000000E+00
  0.00000000E+00  0.00000000E+00  0.00000000E+00  1.00000000E+00  1.00000000E+00
  0.00000000E+00
MxBond                                     I                2
NBond                                      I   N=           3
           1           2           1
IBond                                      I   N=           6
           2           0           1           3           2           0
RBond                                      R   N=           6
  2.00000000E+00  0.00000000E+00  2.00000000E+00  2.00000000E+00  2.00000000E+00
  0.00000000E+00
Virial Ratio                               R      1.997706455921690E+00
SCF Energy                                 R     -1.466736333958083E+02
MP2 Energy                                 R     -1.469862189007877E+02
Total Energy                               R     -1.469862189007877E+02
PUHF Energy                                R     -1.467113411757946E+02
PMP2-0 Energy                              R     -1.470203777711434E+02
Post-SCF wavefunction norm                 R      1.049040211126078E+00
S**2                                       R      2.657759746711763E+00
S**2 after annihilation                    R      2.181131513726424E+00
S**2 corrected to first order              R      2.511140612092644E+00
RMS Force                                  R      4.718227127927089E-02
RMS Density                                R      8.168708852015584E-09
Job Status                                 I                1
Nuclear derivative order                   I                1
External E-field                           R   N=          35
  0.00000000E+00  0.00000000E+00  0.00000000E+00  0.00000000E+00  0.00000000E+00
  0.00000000E+00  0.00000000E+00  0.00000000E+00  0.00000000E+00  0.00000000E+00
  0.00000000E+00  0.00000000E+00  0.00000000E+00  0.00000000E+00  0.00000000E+00
  0.00000000E+00  0.00000000E+00  0.00000000E+00  0.00000000E+00  0.00000000E+00
  0.00000000E+00  0.00000000E+00  0.00000000E+00  0.00000000E+00  0.00000000E+00
  0.00000000E+00  0.00000000E+00  0.00000000E+00  0.00000000E+00  0.00000000E+00
  0.00000000E+00  0.00000000E+00  0.00000000E+00  0.00000000E+00  0.00000000E+00
IOpCl                                      I                1
IROHF                                      I                0
Alpha Orbital Energies                     R   N=          42
 -1.56635718E+01 -1.56634927E+01 -1.13100759E+01 -1.38231729E+00 -1.22537307E+00
 -7.03045782E-01 -6.57817399E-01 -6.50757687E-01 -6.25440617E-01 -5.16574421E-01
 -4.95562618E-01  8.58252486E-02  2.23171312E-01  4.20696138E-01  4.36733765E-01
  6.76300555E-01  7.22987965E-01  8.07149173E-01  8.20981056E-01  8.88557127E-01
  9.21036392E-01  9.26926231E-01  9.85739346E-01  9.93278667E-01  1.06584101E+00
  1.33449069E+00  1.36992565E+00  1.41341608E+00  1.55110776E+00  1.62503895E+00
  1.86396915E+00  1.88211246E+00  1.98625424E+00  2.02969694E+00  2.20997461E+00
  2.29712855E+00  2.55866202E+00  2.56879692E+00  2.70232198E+00  2.90905218E+00
  2.96237202E+00  3.05952303E+00
Beta Orbital Energies                      R   N=          42
 -1.56105154E+01 -1.56104888E+01 -1.13464861E+01 -1.28708238E+00 -1.03427912E+00
 -6.45586023E-01 -5.56168445E-01 -5.52197587E-01 -5.40646210E-01  8.25521558E-02
  1.21386443E-01  1.32969182E-01  2.79258196E-01  4.42474649E-01  4.53454074E-01
  6.11290478E-01  6.38220266E-01  8.32819682E-01  8.40763562E-01  9.28330431E-01
  9.39778790E-01  1.04691741E+00  1.09796504E+00  1.11330389E+00  1.17494753E+00
  1.33676844E+00  1.36799545E+00  1.44614440E+00  1.59622757E+00  1.64267422E+00
  1.91786001E+00  2.01026578E+00  2.14297293E+00  2.15868487E+00  2.29641826E+00
  2.39197883E+00  2.59496711E+00  2.61486555E+00  2.74393139E+00  2.95245947E+00
  3.00225523E+00  3.09432470E+00
Alpha MO coefficients                      R   N=        1764
  7.05042919E-01  1.36263729E-02 -6.09617190E-03 -1.70524758E-03 -1.12925654E-03
  2.87274900E-10  1.65981351E-03  1.42293569E-03 -1.21655009E-10  7.58207857E-05
  7.60440258E-11  2.59561620E-11  1.76602936E-04 -2.56248402E-05  2.04574010E-08
 -7.39890172E-08  8.02226684E-07 -5.36775192E-04 -5.21720637E-08  1.77515904E-11
  3.09384425E-03  2.73647757E-07  6.13282550E-11  5.48758251E-08 -2.21241007E-12
  1.33853317E-11 -6.09174377E-08 -1.06886896E-03 -7.04868812E-01 -1.36231289E-02
  6.09468082E-03 -1.70487672E-03  1.12899183E-03  6.64540004E-11  1.65934466E-03
 -1.42273327E-03 -4.16173868E-11 -7.58609056E-05 -3.15325923E-11  7.32998290E-12
 -1.76591030E-04 -2.56159249E-05  7.04833445E-01  1.31331604E-02 -6.03693542E-03
 -1.50256737E-03 -1.07022609E-03  2.88297211E-10  1.89869277E-03  8.18853527E-04
 -1.14995628E-10 -1.62740747E-04  7.49255773E-11  2.46922018E-11  4.75942920E-05
 -3.58925124E-05  1.65676061E-04 -5.99403210E-04  6.49697033E-03  6.63235650E-08
 -4.22448762E-04  4.79714492E-12 -3.81949632E-07  2.21665484E-03  3.82182906E-11
  4.44471382E-04  3.26692235E-12  4.48062918E-12 -4.93375450E-04  1.32022268E-07
  7.05007560E-01  1.31365258E-02 -6.03844082E-03  1.50298884E-03 -1.07050462E-03
 -6.94673379E-11 -1.89910280E-03  8.19204746E-04  1.21787499E-11 -1.62722070E-04
  2.69210617E-11  4.68925256E-13  4.76377532E-05  3.58987750E-05 -5.84779520E-04
 -9.87135212E-05 -2.78025134E-04 -2.01623375E-04  8.06080470E-05 -1.18161946E-11
  4.44297142E-04  5.72295110E-04 -1.05680389E-11  3.35003004E-07  9.47826663E-12
  1.04702023E-11  2.84859525E-04 -1.13490969E-05  9.97350773E-01  1.55881036E-02
 -2.38028398E-03  9.58113837E-11  9.39903628E-04  8.54709619E-11 -1.13410445E-11
  3.79832024E-05 -2.63994985E-11 -8.58639958E-04  5.36121823E-11  1.49365032E-11
  1.28911036E-03 -6.29471121E-11 -5.84779528E-04 -9.87135437E-05 -2.78025111E-04
  2.01623363E-04  8.06079969E-05  4.63635557E-12 -4.44297119E-04  5.72295081E-04
  9.21969082E-12  3.34992508E-07 -6.95773289E-12 -2.38845902E-13  2.84859518E-04
  1.13490611E-05 -1.29997688E-01  2.83944924E-01  2.42744411E-01 -1.23289228E-01
 -4.13298446E-02  9.05955120E-09 -4.29052215E-02 -1.50320144E-02  3.83623338E-09
 -4.74520882E-03  1.38454382E-09  6.74448546E-10  7.35014136E-03  5.20755830E-03
 -1.35453251E-01  2.54485777E-01  3.77091001E-02  5.01224037E-09  1.28435560E-01
  2.33127716E-09 -1.70253255E-11 -1.07893219E-02  2.69561664E-10 -2.24545669E-02
  1.20521062E-09  5.53440567E-10  1.82759018E-02 -7.39509179E-10 -1.29997684E-01
  2.83944914E-01  2.42744401E-01  1.23289232E-01 -4.13298351E-02 -1.40037335E-09
  4.29052233E-02 -1.50320093E-02 -4.51300432E-10 -4.74520968E-03  7.74858028E-10
  1.78543583E-10  7.35013786E-03 -5.20755965E-03 -1.51427897E-01  3.30075902E-01
  3.06417424E-01 -7.43437723E-02 -6.58895127E-02  1.46589129E-08 -2.44043119E-02
 -2.55185039E-02  6.66307865E-09 -2.75446350E-03  2.08346540E-09  4.62781774E-10
 -3.35991191E-03  3.20940758E-03  1.66629616E-09 -2.62284216E-09  1.86409388E-09
  2.79301452E-01 -6.76731118E-09  4.09851924E-09  1.39094297E-02 -2.35088615E-10
 -6.53328068E-10 -2.77142659E-10  4.33602914E-10  1.08657920E-10  5.51742942E-10
  4.22968421E-02  1.51427900E-01 -3.30075908E-01 -3.06417429E-01 -7.43437909E-02
  6.58895015E-02  3.60640832E-09 -2.44043187E-02  2.55184982E-02  1.56236388E-09
  2.75446478E-03 -8.65661742E-10 -5.18712887E-10  3.35991588E-03  3.20941072E-03
 -8.21154020E-02  1.86588566E-01  2.92171429E-01  3.56301648E-01  2.39034417E-02
  9.78289186E-08  1.95183706E-01  8.16688291E-03  5.73496068E-08  1.48236621E-02
  1.64310139E-09 -1.54317153E-09 -1.97926324E-02 -2.14869334E-02  8.84268069E-02
 -2.16996178E-01 -4.87701525E-02 -3.16306647E-08 -1.43878937E-01  2.62844722E-08
 -1.06622315E-08 -4.34860940E-03  6.54863624E-09  3.47352289E-03  2.86918031E-09
  3.46213578E-09  1.59531859E-02 -4.77856623E-09 -8.21153988E-02  1.86588556E-01
  2.92171398E-01 -3.56301538E-01  2.39034699E-02  1.07364899E-08 -1.95183646E-01
  8.16690924E-03  6.64018104E-09  1.48236602E-02  3.49906079E-09 -1.13981079E-09
 -1.97926362E-02  2.14869237E-02 -7.22802091E-09  2.23563098E-08  4.07954464E-08
  1.42606625E-08  1.65656986E-07  3.99005341E-01  6.42779111E-10  9.50145759E-08
  2.38227828E-01  8.36741625E-09 -2.60056198E-02 -1.62495302E-02  5.73104662E-09
 -1.05214566E-08  1.07574504E-08 -1.88969775E-08 -3.12592835E-08 -9.57264034E-08
  5.58488568E-08  2.56334408E-01 -1.33674899E-08  2.20585513E-08  1.02256225E-01
  1.48676101E-09  3.10963391E-09  3.37730049E-02 -1.79523448E-08 -4.74198447E-09
  1.79210706E-08 -3.85376045E-08 -7.94513702E-08  1.48834025E-07  2.11389329E-08
  3.99005290E-01  8.06065453E-08  1.74324977E-08  2.38227797E-01 -5.97594383E-09
  2.60056219E-02 -1.62495240E-02  6.72920864E-09 -5.69513118E-09 -2.33402944E-02
  6.38791139E-02  8.46441118E-02 -9.87479685E-02  3.74862248E-01 -9.35890832E-08
 -6.08224285E-02  2.26127973E-01 -5.54190625E-08  5.18599807E-03  6.09836180E-09
  8.09175066E-09  1.45946989E-02 -2.00965149E-02  8.18896809E-02 -1.75338487E-01
 -1.52448859E-01  1.84137209E-07  1.50977208E-01 -6.67630793E-08  1.08877307E-08
  7.97104743E-02 -2.82308126E-08  3.53672546E-03 -4.26778585E-10 -8.33207625E-09
 -6.05141648E-02  7.77552184E-09 -2.33403525E-02  6.38792528E-02  8.46443557E-02
  9.87477159E-02  3.74862623E-01 -1.07847508E-07  6.08223005E-02  2.26128187E-01
 -6.39861212E-08  5.18601154E-03 -6.72707187E-09  3.11832543E-09  1.45946952E-02
  2.00965535E-02  5.63607859E-02 -1.30776232E-01 -2.42798529E-01 -2.51209494E-01
 -2.93635806E-01  6.52643645E-08 -1.35587592E-01 -1.70378087E-01  3.77751386E-08
 -1.60291807E-02 -1.07506953E-08 -7.60186229E-09  2.27320828E-04  3.11617402E-02
 -4.30438010E-08  9.13499091E-08  9.23219439E-08  3.36979338E-01 -1.12106631E-07
  8.05652228E-08  4.00932973E-02 -6.39417801E-08  3.98106767E-08 -1.50586605E-09
 -3.19946236E-09  9.48242097E-09  3.59433289E-08  9.20296791E-03 -5.63607686E-02
  1.30776177E-01  2.42798478E-01 -2.51209645E-01  2.93635417E-01  1.32918826E-07
 -1.35587681E-01  1.70377847E-01  8.06504879E-08  1.60291756E-02  1.01150465E-08
 -6.37790980E-09 -2.27351002E-04  3.11617180E-02  1.40509380E-08 -2.93509989E-08
 -5.03962227E-08 -4.88899602E-09 -5.41265902E-08  4.74695766E-01 -6.65685692E-09
 -3.86731669E-08  3.35487147E-01  3.39240065E-09 -1.89743525E-02 -1.30133489E-02
 -2.46411267E-10  4.62748004E-09 -7.40160020E-09  2.05923978E-08 -1.32544048E-09
  1.39574091E-08  9.80554538E-09 -1.90999662E-08  5.20059976E-09 -2.64684308E-09
 -1.12773662E-08  4.90703954E-10  5.68976762E-02 -2.51261578E-09 -1.16690317E-09
 -3.83045784E-09  2.45492312E-09 -3.97953038E-09 -6.14338188E-09  4.45435972E-08
  4.28391896E-08 -4.74695796E-01  3.19218034E-08  2.82425093E-08 -3.35487168E-01
  1.03257944E-09 -1.89743607E-02  1.30133444E-02  3.37366994E-09 -2.31925077E-10
  7.61065116E-03 -1.91186436E-02 -4.81410928E-02  3.82733676E-01 -3.21941226E-01
 -4.85050902E-08  2.67226952E-01 -2.24664775E-01 -3.45419537E-08  2.83520251E-03
  6.80997578E-09 -1.53982797E-09 -2.30547591E-02  3.03244048E-04 -1.37108627E-08
  3.44931160E-08  1.17122909E-08 -6.56574015E-02 -5.47209562E-09 -1.37581809E-08
  6.91413189E-02 -2.10315723E-08 -1.02866496E-08  8.77227432E-10 -5.59227819E-09
 -1.34968195E-09  7.82659122E-10 -4.26086109E-02 -7.61063035E-03  1.91185963E-02
  4.81410317E-02  3.82733726E-01  3.21941208E-01  3.69580952E-08  2.67226996E-01
  2.24664758E-01  2.76675928E-08 -2.83521096E-03 -1.33104364E-10 -1.64453099E-09
  2.30547608E-02  3.03245683E-04  2.68427773E-02 -8.52037752E-02 -1.45978806E-01
  2.28840177E-02  2.43730993E-01 -3.32689853E-09  1.86907164E-02  3.47991300E-01
 -3.98491850E-09  4.87329630E-03 -5.64332771E-10  2.65759732E-09 -1.19772470E-02
 -6.47841048E-03 -8.39478363E-02  5.63042041E-02  9.12767368E-01 -4.62618274E-09
 -3.69860854E-01  4.03319198E-09  2.79289888E-08 -4.75044287E-01  1.00143070E-08
  7.74158163E-03  1.51241691E-09 -1.26721876E-09  9.07134342E-03 -3.68821460E-09
  2.68427795E-02 -8.52037812E-02 -1.45978786E-01 -2.28840193E-02  2.43730954E-01
 -2.59532612E-09 -1.86907082E-02  3.47991250E-01 -4.60825823E-09  4.87329358E-03
 -6.35912025E-12 -8.75765523E-10 -1.19772501E-02  6.47841151E-03 -5.17030993E-10
  1.71135442E-09 -4.29611108E-08  1.11328416E-08  2.37784382E-09 -2.63464108E-01
  3.43688918E-08  1.18863961E-08 -4.77355603E-01 -2.81668024E-09 -1.60831752E-02
 -1.71759164E-02 -7.40971291E-10 -1.74111431E-09  8.80365350E-10 -4.93921741E-09
  4.53605307E-08 -2.62675410E-09  5.59025343E-09  4.44728823E-01  3.72387259E-08
  3.32543888E-08  9.82133070E-01  1.26488851E-09  3.37137540E-09  2.00152166E-03
  7.70998711E-11  5.93302023E-10  2.54854384E-10  1.68390387E-09 -4.45049114E-09
  3.30049104E-09 -5.32788601E-09 -2.63464112E-01 -4.22413769E-10 -1.17539571E-08
 -4.77355614E-01  8.10784499E-10  1.60831717E-02 -1.71759202E-02  4.27899592E-10
 -5.17849343E-10  6.79970415E-02 -5.63922476E-02 -1.98077671E+00 -5.89850139E-02
  1.42491127E-01 -2.52665691E-09  4.61202044E-01  7.00401660E-01  1.92953475E-08
  1.34704833E-02 -1.64574370E-09  1.34191904E-09 -2.47254906E-02 -2.98707112E-02
 -3.10366319E-10 -1.78307664E-08  1.92012807E-07  6.74708699E-02  7.86169516E-09
 -8.90819433E-09  2.91547616E+00  1.16360217E-07 -1.60100595E-08 -5.11440903E-09
 -7.58631021E-11 -7.61562510E-10  1.56162440E-09  8.94483631E-02 -6.79970367E-02
  5.63922380E-02  1.98077651E+00 -5.89850112E-02 -1.42491126E-01  2.76355845E-09
  4.61201924E-01 -7.00401652E-01  8.78042611E-09 -1.34704777E-02  3.59293783E-10
  8.65280602E-10  2.47254873E-02 -2.98707109E-02  8.42192755E-02 -5.39328082E-02
 -2.50948257E+00  7.08698216E-02 -5.25085246E-02 -5.38544899E-09  1.23053619E+00
  2.37871132E-01  1.77217346E-08  4.61698557E-02 -4.53500005E-11 -5.31669428E-10
 -2.17623520E-02 -2.11912892E-02 -7.57778392E-02 -1.14935608E-01  4.57293059E+00
  3.55670415E-09 -7.83602691E-03 -9.96105111E-09 -1.36094682E-07  2.53653273E+00
 -1.17760949E-08 -6.04166595E-02 -4.73798301E-11  3.36907394E-10  6.64768007E-02
 -4.72229727E-09  8.42192801E-02 -5.39328081E-02 -2.50948274E+00 -7.08698185E-02
 -5.25085147E-02  2.26730324E-09 -1.23053622E+00  2.37871206E-01  5.50945666E-09
  4.61698589E-02 -9.45504669E-10  8.87871333E-10 -2.17623515E-02  2.11912928E-02
 -1.27965008E-09 -4.71220206E-09  2.02015894E-08 -7.53966684E-09 -4.13056894E-09
 -1.24160994E-01 -1.51917836E-08 -1.08092126E-08  3.28611132E-03  2.00291604E-09
  7.10684552E-02  3.59704850E-02  7.52278109E-10 -2.94882536E-09  1.99115647E-09
 -4.26168275E-08  3.08204269E-08 -1.51571952E-08  1.61926378E-08 -9.75172750E-01
 -1.09599608E-08 -1.91973838E-08  1.04482585E+00 -2.38323329E-09 -2.23496800E-09
 -5.86763241E-02  9.55024159E-10  2.42363006E-09  7.20797593E-10 -4.28525667E-09
 -1.12461540E-08  1.37548677E-09 -1.50361326E-09 -1.24160984E-01 -7.77490888E-09
  1.11121783E-08  3.28609967E-03 -2.01339441E-10 -7.10684541E-02  3.59704862E-02
  3.52077038E-10  9.25931043E-10  3.03349277E-02 -1.77735601E-01 -2.93010677E-01
 -6.99018684E-02  3.44523172E-02 -7.09006126E-09  4.00478658E-01  8.01074844E-02
  1.82875780E-08  1.69867382E-03 -1.55028419E-09 -1.87469974E-09  6.84095098E-02
 -2.59410636E-02  2.08795600E-02 -6.72639913E-01  1.55437405E+00 -4.02233953E-08
  9.02840283E-01  2.29585347E-08 -1.86843340E-08 -3.77905318E-01 -3.20022804E-08
  5.03871804E-02 -3.20277919E-09  3.04268787E-09 -9.49592095E-02  1.55645600E-08
  3.03349323E-02 -1.77735607E-01 -2.93010719E-01  6.99018436E-02  3.44523111E-02
  8.65754540E-09 -4.00478671E-01  8.01075617E-02 -7.07751964E-09  1.69867119E-03
  1.95631377E-09 -4.59113057E-10  6.84095099E-02  2.59410537E-02  5.42098255E-02
 -1.65688489E-01 -2.62464152E-01 -4.21905010E-02 -1.60273156E-01 -2.64422132E-08
  6.90131983E-01  6.08170193E-01  4.52041537E-08 -5.14490089E-02  1.86849969E-09
  2.49083655E-09  5.20203410E-03  8.95481442E-02 -1.18388586E-08  3.85093986E-07
 -1.01807534E-07  8.82059317E-01  1.07723079E-07 -8.38940981E-09 -1.51952498E-01
  2.71331844E-08 -1.62584076E-08  1.99642495E-08 -2.64408457E-09 -2.49043645E-09
 -5.80327218E-08 -1.19215240E-01 -5.42098059E-02  1.65688503E-01  2.62464040E-01
 -4.21904241E-02  1.60273318E-01 -6.44340489E-09  6.90131576E-01 -6.08170237E-01
  1.36350907E-08  5.14489776E-02  1.26719810E-10  2.02910245E-09 -5.20199350E-03
  8.95480894E-02  3.16575921E-02  3.34945530E-02 -1.60177528E-01 -9.25544259E-02
  2.09813264E-01 -1.07619800E-08  6.03524301E-01  2.19354474E-02  1.51103081E-08
 -5.26035868E-02  3.91945712E-09  3.17205686E-09  5.67722616E-02  9.41926149E-02
 -4.29634207E-02  1.38393841E+00 -4.82239034E-01 -2.79278155E-07  2.55997499E-01
 -1.55945185E-08  3.46420812E-08  6.70971940E-02  1.11346837E-08  5.81095744E-02
 -1.10505839E-09 -2.26695219E-09 -1.59682834E-01  4.69067753E-08  3.16576257E-02
  3.34944610E-02 -1.60177702E-01  9.25544175E-02  2.09813159E-01 -3.63559800E-10
 -6.03524672E-01  2.19358450E-02 -8.22864876E-10 -5.26036203E-02 -1.14145323E-09
 -3.53064042E-10  5.67722587E-02 -9.41926761E-02  1.27442648E-02 -5.12704728E-02
 -2.46925113E-01 -7.27097980E-02 -5.27960443E-01 -5.10551919E-08  2.81386836E-01
  1.02481833E+00  7.93922837E-08 -1.65694914E-02  4.47157149E-10 -9.93412916E-10
 -7.35932700E-03 -2.34337920E-02  5.42301211E-02  3.79770900E-01  6.36143542E-01
  4.97609050E-08  2.15618481E-01  7.25000686E-09 -2.18368651E-08 -5.37879400E-01
 -2.31481138E-08 -1.91883928E-01 -1.38225946E-08 -1.66181195E-09  2.89442090E-01
 -2.58553410E-08  1.27442612E-02 -5.12704888E-02 -2.46925101E-01  7.27098457E-02
 -5.27960472E-01  2.45574340E-08 -2.81386858E-01  1.02481833E+00 -3.38103020E-08
 -1.65694807E-02  2.03771364E-09  8.28842275E-10 -7.35932493E-03  2.34338061E-02
  3.58765726E-03 -4.77364378E-02 -2.90336244E-01 -5.18752524E-01 -3.07545852E-02
 -2.75300667E-07  9.50918029E-01 -1.49038883E-01  4.08149739E-07  3.72491109E-02
  9.28708811E-09  5.40662841E-12  2.82270167E-02 -8.60859758E-02  1.05656001E-08
 -4.26932257E-08  9.26695734E-08 -2.00074396E-01 -6.24860064E-08  2.25507079E-08
  5.57360872E-02  4.52394668E-08 -8.15946275E-08 -3.74670590E-08 -9.18680908E-08
 -4.40486811E-10  2.81802601E-08  4.21274395E-01 -3.58766143E-03  4.77364146E-02
  2.90336207E-01 -5.18752376E-01  3.07545438E-02  1.80116225E-07  9.50917920E-01
  1.49038930E-01 -2.49688131E-07 -3.72491031E-02  1.50727270E-08  8.12755100E-10
 -2.82270487E-02 -8.60859611E-02 -6.10810368E-09 -2.03516803E-09  1.89425815E-07
  1.46554561E-07  4.22926662E-08 -6.25271055E-01 -3.65262037E-07 -3.63088019E-08
  8.99684116E-01 -9.61374464E-09  3.64018071E-02  2.63561489E-03 -1.79485901E-08
  2.71019573E-08  2.51954682E-09 -5.05410337E-08 -5.44474131E-08  4.75664534E-08
 -5.65206327E-08  3.09823888E-08 -3.54793316E-08  5.92384642E-08 -1.03193647E-07
 -8.31149357E-09 -2.53068940E-01 -3.16707110E-09 -1.40662952E-08 -1.52594143E-07
 -1.32636550E-10 -2.11691324E-08 -9.52135878E-08  2.33528898E-07  3.50100763E-08
  6.25270937E-01 -3.77169122E-07 -1.31131887E-07 -8.99683921E-01  1.42701458E-08
  3.64018120E-02 -2.63560935E-03  3.95195022E-09  3.22941679E-08 -6.67436312E-09
 -3.13825015E-08  2.31680063E-08 -1.38306232E-07  3.75859922E-08 -6.77476234E-01
  6.53483269E-08 -7.59692242E-08  1.05945174E+00  8.08272271E-09 -1.82564989E-02
  3.02979705E-02 -2.76694158E-08 -9.21401584E-09  1.88502611E-08 -1.01788573E-07
  2.15232817E-07 -2.17755150E-08 -1.02623088E-07  2.79063967E-01 -3.03288000E-08
  1.81503801E-07 -1.04046875E+00 -6.98344874E-08  2.71291741E-08 -4.75682902E-02
  9.52657928E-09 -3.12660488E-08 -1.05615645E-09 -1.65113983E-08 -1.31206477E-07
  2.18269547E-07  4.83085203E-08 -6.77476348E-01 -2.71073346E-07 -6.83351431E-08
  1.05945190E+00  1.10374466E-08  1.82564885E-02  3.02979695E-02 -2.11454976E-08
  1.63497730E-08 -8.78295293E-03 -4.57961412E-02 -4.27728001E-01 -6.63372534E-01
  1.24832399E-01  2.33870856E-07  7.27284412E-01 -1.58996103E-01 -3.55463016E-07
  3.99048214E-02 -3.93415271E-09 -9.64774739E-09 -8.79844274E-02 -4.59248277E-02
  7.10737026E-02 -3.30611573E-01  1.14408440E+00  9.31653638E-09 -3.26641006E-01
 -7.12110424E-08 -9.12716063E-08  7.35003459E-01  2.79152256E-07 -2.74374077E-01
  2.27043587E-08  1.18916376E-08  6.49773994E-02 -5.72828117E-08 -8.78294778E-03
 -4.57961317E-02 -4.27728229E-01  6.63372648E-01  1.24832361E-01  1.39222765E-07
 -7.27284659E-01 -1.58996045E-01 -2.22728343E-07  3.99048257E-02 -8.91140997E-09
 -7.78246309E-09 -8.79844169E-02  4.59248515E-02 -7.18774756E-03 -1.25405342E-01
 -2.44459765E-01  2.67193745E-02 -6.73076956E-01  2.12029819E-08 -2.95477988E-01