comment:                                                                
Freq      UMP2-FC                                                     CC-pVDZ             
Number of atoms                            I                3
Info1-9                                    I   N=           9
          17          16           0           0           0         101
           6           2           1
Full Title                                 C   N=           1
comment:    
Route                                      C   N=           8
#P uhf mp2/cc-pvdz # SCF=(xqc) # Freq=() # IOp(7/33=1) # int
=ultrafine # fchk NoSym guess=mix   
Charge                                     I                0
Multiplicity                               I                3
Number of electrons                        I               20
Number of alpha electrons                  I               11
Number of beta electrons                   I                9
Number of basis functions                  I               42
Number of independent functions            I               42
Number of point charges in /Mol/           I                0
Number of translation vectors              I                0
Atomic numbers                             I   N=           3
           7           6           7
Nuclear charges                            R   N=           3
  7.00000000E+00  6.00000000E+00  7.00000000E+00
Current cartesian coordinates              R   N=           9
  1.99361761E+00  3.59998497E-01  0.00000000E+00  0.00000000E+00 -8.40181687E-01
  0.00000000E+00 -1.99361761E+00  3.59998497E-01  0.00000000E+00
Number of symbols in /Mol/                 I                0
Force Field                                I                0
Atom Types                                 C   N=           3
                                    
Int Atom Types                             I   N=           3
           0           0           0
MM charges                                 R   N=           3
  0.00000000E+00  0.00000000E+00  0.00000000E+00
Integer atomic weights                     I   N=           3
          14          12          14
Real atomic weights                        R   N=           3
  1.40030740E+01  1.20000000E+01  1.40030740E+01
Atom fragment info                         I   N=           3
           0           0           0
Atom residue num                           I   N=           3
           0           0           0
Nuclear spins                              I   N=           3
           2           0           2
Nuclear ZEff                               R   N=           3
 -4.55000000E+00 -3.60000000E+00 -4.55000000E+00
Nuclear ZNuc                               R   N=           3
  7.00000000E+00  6.00000000E+00  7.00000000E+00
Nuclear QMom                               R   N=           3
  2.04400000E+00  0.00000000E+00  2.04400000E+00
Nuclear GFac                               R   N=           3
  4.03761000E-01  0.00000000E+00  4.03761000E-01
MicOpt                                     I   N=           3
          -1          -1          -1
Number of residues                         I                0
Number of secondary structures             I                0
Number of contracted shells                I               18
Number of primitive shells                 I               60
Pure/Cartesian d shells                    I                0
Pure/Cartesian f shells                    I                0
Highest angular momentum                   I                2
Largest degree of contraction              I                7
Shell types                                I   N=          18
           0           0           0           1           1          -2
           0           0           0           1           1          -2
           0           0           0           1           1          -2
Number of primitives per shell             I   N=          18
           7           7           1           3           1           1
           7           7           1           3           1           1
           7           7           1           3           1           1
Shell to atom map                          I   N=          18
           1           1           1           1           1           1
           2           2           2           2           2           2
           3           3           3           3           3           3
Primitive exponents                        R   N=          60
  9.04600000E+03  1.35700000E+03  3.09300000E+02  8.77300000E+01  2.85600000E+01
  1.02100000E+01  3.83800000E+00  9.04600000E+03  3.09300000E+02  8.77300000E+01
  2.85600000E+01  1.02100000E+01  3.83800000E+00  7.46600000E-01  2.24800000E-01
  1.35500000E+01  2.91700000E+00  7.97300000E-01  2.18500000E-01  8.17000000E-01
  6.66500000E+03  1.00000000E+03  2.28000000E+02  6.47100000E+01  2.10600000E+01
  7.49500000E+00  2.79700000E+00  6.66500000E+03  2.28000000E+02  6.47100000E+01
  2.10600000E+01  7.49500000E+00  2.79700000E+00  5.21500000E-01  1.59600000E-01
  9.43900000E+00  2.00200000E+00  5.45600000E-01  1.51700000E-01  5.50000000E-01
  9.04600000E+03  1.35700000E+03  3.09300000E+02  8.77300000E+01  2.85600000E+01
  1.02100000E+01  3.83800000E+00  9.04600000E+03  3.09300000E+02  8.77300000E+01
  2.85600000E+01  1.02100000E+01  3.83800000E+00  7.46600000E-01  2.24800000E-01
  1.35500000E+01  2.91700000E+00  7.97300000E-01  2.18500000E-01  8.17000000E-01
Contraction coefficients                   R   N=          60
  7.01708743E-04  5.40299880E-03  2.74729510E-02  1.03514580E-01  2.79586579E-01
  4.51317241E-01  2.80626875E-01  7.77446797E-06  3.00742072E-04 -2.80016549E-03
 -9.89708505E-03 -1.14331114E-01 -1.18162383E-01  1.09786885E+00  1.00000000E+00
  5.89056768E-02  3.20461107E-01  7.53042062E-01  1.00000000E+00  1.00000000E+00
  6.93516317E-04  5.34150243E-03  2.71366714E-02  1.01992385E-01  2.75508636E-01
  4.51086433E-01  2.87565745E-01  7.73354740E-06  2.78072137E-04 -2.57875654E-03
 -8.95087684E-03 -1.06058855E-01 -1.31517686E-01  1.09948660E+00  1.00000000E+00
  5.69792516E-02  3.13207212E-01  7.60376742E-01  1.00000000E+00  1.00000000E+00
  7.01708743E-04  5.40299880E-03  2.74729510E-02  1.03514580E-01  2.79586579E-01
  4.51317241E-01  2.80626875E-01  7.77446797E-06  3.00742072E-04 -2.80016549E-03
 -9.89708505E-03 -1.14331114E-01 -1.18162383E-01  1.09786885E+00  1.00000000E+00
  5.89056768E-02  3.20461107E-01  7.53042062E-01  1.00000000E+00  1.00000000E+00
Coordinates of each shell                  R   N=          54
  1.99361761E+00  3.59998497E-01  0.00000000E+00  1.99361761E+00  3.59998497E-01
  0.00000000E+00  1.99361761E+00  3.59998497E-01  0.00000000E+00  1.99361761E+00
  3.59998497E-01  0.00000000E+00  1.99361761E+00  3.59998497E-01  0.00000000E+00
  1.99361761E+00  3.59998497E-01  0.00000000E+00  0.00000000E+00 -8.40181687E-01
  0.00000000E+00  0.00000000E+00 -8.40181687E-01  0.00000000E+00  0.00000000E+00
 -8.40181687E-01  0.00000000E+00  0.00000000E+00 -8.40181687E-01  0.00000000E+00
  0.00000000E+00 -8.40181687E-01  0.00000000E+00  0.00000000E+00 -8.40181687E-01
  0.00000000E+00 -1.99361761E+00  3.59998497E-01  0.00000000E+00 -1.99361761E+00
  3.59998497E-01  0.00000000E+00 -1.99361761E+00  3.59998497E-01  0.00000000E+00
 -1.99361761E+00  3.59998497E-01  0.00000000E+00 -1.99361761E+00  3.59998497E-01
  0.00000000E+00 -1.99361761E+00  3.59998497E-01  0.00000000E+00
Constraint Structure                       R   N=           9
  1.99361761E+00  3.59998497E-01  0.00000000E+00  0.00000000E+00 -8.40181687E-01
  0.00000000E+00 -1.99361761E+00  3.59998497E-01  0.00000000E+00
Num ILSW                                   I              100
ILSW                                       I   N=         100
           1           0           0           0           2           0
           0           0           3           0           0          -1
           5           0           0           0           2           0
           0           0           0           0           1           0
           1           1           0           0           0           0
           0           0      100000           0          -1           0
           0           0           0           0           0           0
           0           0           0           1           1           0
           0           0           1           0           0           0
           0           0           4          41           0           0
           0           0           0           0           0           0
           0           0           0           3           0           0
           0           0           0           0           0           0
           0           0           0           0           0           0
           0           0           0           0           0           0
           0           0           0           0           0           0
           0           0           0           0
Num RLSW                                   I               41
RLSW                                       R   N=          41
  1.00000000E+00  1.00000000E+00  1.00000000E+00  1.00000000E+00  1.00000000E+00
  0.00000000E+00  0.00000000E+00  1.00000000E+00  0.00000000E+00  0.00000000E+00
  0.00000000E+00  0.00000000E+00  1.00000000E+00  0.00000000E+00  0.00000000E+00
  0.00000000E+00  0.00000000E+00  1.00000000E+00  0.00000000E+00  0.00000000E+00
  0.00000000E+00  0.00000000E+00  1.00000000E+00  0.00000000E+00  0.00000000E+00
  0.00000000E+00  0.00000000E+00  1.00000000E+00  0.00000000E+00  0.00000000E+00
  0.00000000E+00  0.00000000E+00  1.00000000E+00  0.00000000E+00  0.00000000E+00
  0.00000000E+00  0.00000000E+00  0.00000000E+00  1.00000000E+00  1.00000000E+00
  0.00000000E+00
MxBond                                     I                2
NBond                                      I   N=           3
           1           2           1
IBond                                      I   N=           6
           2           0           1           3           2           0
RBond                                      R   N=           6
  2.00000000E+00  0.00000000E+00  2.00000000E+00  2.00000000E+00  2.00000000E+00
  0.00000000E+00
Virial Ratio                               R      1.997706455921690E+00
SCF Energy                                 R     -1.466736333958089E+02
MP2 Energy                                 R     -1.469862189007883E+02
Total Energy                               R     -1.469862189007883E+02
PUHF Energy                                R     -1.467113411757952E+02
PMP2-0 Energy                              R     -1.470203777711440E+02
Post-SCF wavefunction norm                 R      1.483566894049233E+00
S**2                                       R      2.657759746711665E+00
S**2 after annihilation                    R      2.181131513726267E+00
S**2 corrected to first order              R      2.511140612092548E+00
RMS Force                                  R      4.718227128019715E-02
RMS Density                                R      8.168709628270835E-09
Job Status                                 I                1
Nuclear derivative order                   I                2
External E-field                           R   N=          35
  0.00000000E+00  0.00000000E+00  0.00000000E+00  0.00000000E+00  0.00000000E+00
  0.00000000E+00  0.00000000E+00  0.00000000E+00  0.00000000E+00  0.00000000E+00
  0.00000000E+00  0.00000000E+00  0.00000000E+00  0.00000000E+00  0.00000000E+00
  0.00000000E+00  0.00000000E+00  0.00000000E+00  0.00000000E+00  0.00000000E+00
  0.00000000E+00  0.00000000E+00  0.00000000E+00  0.00000000E+00  0.00000000E+00
  0.00000000E+00  0.00000000E+00  0.00000000E+00  0.00000000E+00  0.00000000E+00
  0.00000000E+00  0.00000000E+00  0.00000000E+00  0.00000000E+00  0.00000000E+00
IOpCl                                      I                1
IROHF                                      I                0
Alpha Orbital Energies                     R   N=          42
 -1.56635718E+01 -1.56634927E+01 -1.13100759E+01 -1.38231729E+00 -1.22537307E+00
 -7.03045782E-01 -6.57817399E-01 -6.50757687E-01 -6.25440617E-01 -5.16574421E-01
 -4.95562618E-01  8.58252486E-02  2.23171312E-01  4.20696138E-01  4.36733765E-01
  6.76300555E-01  7.22987965E-01  8.07149173E-01  8.20981056E-01  8.88557127E-01
  9.21036392E-01  9.26926231E-01  9.85739346E-01  9.93278667E-01  1.06584101E+00
  1.33449069E+00  1.36992565E+00  1.41341608E+00  1.55110776E+00  1.62503895E+00
  1.86396915E+00  1.88211246E+00  1.98625424E+00  2.02969694E+00  2.20997461E+00
  2.29712855E+00  2.55866202E+00  2.56879692E+00  2.70232198E+00  2.90905218E+00
  2.96237202E+00  3.05952303E+00
Beta Orbital Energies                      R   N=          42
 -1.56105154E+01 -1.56104888E+01 -1.13464861E+01 -1.28708238E+00 -1.03427912E+00
 -6.45586023E-01 -5.56168445E-01 -5.52197587E-01 -5.40646210E-01  8.25521558E-02
  1.21386443E-01  1.32969182E-01  2.79258196E-01  4.42474649E-01  4.53454074E-01
  6.11290478E-01  6.38220266E-01  8.32819682E-01  8.40763562E-01  9.28330431E-01
  9.39778790E-01  1.04691741E+00  1.09796504E+00  1.11330389E+00  1.17494753E+00
  1.33676844E+00  1.36799545E+00  1.44614440E+00  1.59622757E+00  1.64267422E+00
  1.91786001E+00  2.01026578E+00  2.14297293E+00  2.15868487E+00  2.29641826E+00
  2.39197883E+00  2.59496711E+00  2.61486555E+00  2.74393139E+00  2.95245947E+00
  3.00225523E+00  3.09432470E+00
Alpha MO coefficients                      R   N=        1764
  7.05042918E-01  1.36263729E-02 -6.09617190E-03 -1.70524758E-03 -1.12925653E-03
  2.87275214E-10  1.65981351E-03  1.42293569E-03 -1.21655828E-10  7.58207858E-05
  7.60448935E-11  2.59579488E-11  1.76602936E-04 -2.56248402E-05  2.04572456E-08
 -7.39884863E-08  8.02220947E-07 -5.36775192E-04 -5.21716905E-08  1.77517448E-11
  3.09384425E-03  2.73645798E-07  6.13282273E-11  5.48754342E-08 -2.21103887E-12
  1.33845379E-11 -6.09170039E-08 -1.06886896E-03 -7.04868813E-01 -1.36231289E-02
  6.09468083E-03 -1.70487672E-03  1.12899183E-03  6.64537468E-11  1.65934466E-03
 -1.42273327E-03 -4.16166161E-11 -7.58609055E-05 -3.15308024E-11  7.33070242E-12
 -1.76591030E-04 -2.56159250E-05  7.04833446E-01  1.31331604E-02 -6.03693543E-03
 -1.50256738E-03 -1.07022609E-03  2.88297432E-10  1.89869277E-03  8.18853528E-04
 -1.14996387E-10 -1.62740747E-04  7.49252399E-11  2.46918968E-11  4.75942922E-05
 -3.58925124E-05  1.65676061E-04 -5.99403210E-04  6.49697033E-03  6.63230914E-08
 -4.22448762E-04  4.79682715E-12 -3.81946905E-07  2.21665484E-03  3.82187310E-11
  4.44471382E-04  3.26668490E-12  4.48107741E-12 -4.93375450E-04  1.32021323E-07
  7.05007560E-01  1.31365257E-02 -6.03844081E-03  1.50298884E-03 -1.07050462E-03
 -6.94671963E-11 -1.89910280E-03  8.19204744E-04  1.21775268E-11 -1.62722070E-04
  2.69202248E-11  4.68571978E-13  4.76377531E-05  3.58987749E-05 -5.84779520E-04
 -9.87135212E-05 -2.78025134E-04 -2.01623375E-04  8.06080470E-05 -1.18165271E-11
  4.44297142E-04  5.72295110E-04 -1.05680232E-11  3.35003003E-07  9.47864445E-12
  1.04701472E-11  2.84859525E-04 -1.13490969E-05  9.97350773E-01  1.55881036E-02
 -2.38028398E-03  9.58134226E-11  9.39903628E-04  8.54710001E-11 -1.13391241E-11
  3.79832024E-05 -2.63993533E-11 -8.58639958E-04  5.36114880E-11  1.49373466E-11
  1.28911036E-03 -6.29480771E-11 -5.84779528E-04 -9.87135437E-05 -2.78025111E-04
  2.01623363E-04  8.06079969E-05  4.63631863E-12 -4.44297119E-04  5.72295081E-04
  9.21905496E-12  3.34992507E-07 -6.95907128E-12 -2.38339909E-13  2.84859518E-04
  1.13490610E-05 -1.29997688E-01  2.83944924E-01  2.42744411E-01 -1.23289228E-01
 -4.13298446E-02  9.05955060E-09 -4.29052215E-02 -1.50320144E-02  3.83623269E-09
 -4.74520882E-03  1.38454384E-09  6.74448606E-10  7.35014136E-03  5.20755830E-03
 -1.35453251E-01  2.54485777E-01  3.77091001E-02  5.01219125E-09  1.28435560E-01
  2.33127705E-09 -1.70454708E-11 -1.07893219E-02  2.69562794E-10 -2.24545669E-02
  1.20521093E-09  5.53440291E-10  1.82759018E-02 -7.39520856E-10 -1.29997684E-01
  2.83944914E-01  2.42744401E-01  1.23289232E-01 -4.13298351E-02 -1.40037437E-09
  4.29052233E-02 -1.50320093E-02 -4.51300815E-10 -4.74520968E-03  7.74858064E-10
  1.78544181E-10  7.35013786E-03 -5.20755965E-03 -1.51427897E-01  3.30075902E-01
  3.06417424E-01 -7.43437723E-02 -6.58895127E-02  1.46589149E-08 -2.44043119E-02
 -2.55185039E-02  6.66308128E-09 -2.75446350E-03  2.08346523E-09  4.62782082E-10
 -3.35991191E-03  3.20940758E-03  1.66627571E-09 -2.62280315E-09  1.86406865E-09
  2.79301452E-01 -6.76728935E-09  4.09851924E-09  1.39094297E-02 -2.35107616E-10
 -6.53329690E-10 -2.77144277E-10  4.33602247E-10  1.08657693E-10  5.51744043E-10
  4.22968421E-02  1.51427900E-01 -3.30075908E-01 -3.06417429E-01 -7.43437909E-02
  6.58895015E-02  3.60640718E-09 -2.44043187E-02  2.55184982E-02  1.56236496E-09
  2.75446478E-03 -8.65661235E-10 -5.18713652E-10  3.35991588E-03  3.20941072E-03
 -8.21154020E-02  1.86588566E-01  2.92171429E-01  3.56301648E-01  2.39034417E-02
  9.78289478E-08  1.95183706E-01  8.16688291E-03  5.73496235E-08  1.48236621E-02
  1.64310012E-09 -1.54317217E-09 -1.97926324E-02 -2.14869334E-02  8.84268069E-02
 -2.16996178E-01 -4.87701525E-02 -3.16306008E-08 -1.43878937E-01  2.62844883E-08
 -1.06622403E-08 -4.34860940E-03  6.54864240E-09  3.47352289E-03  2.86918003E-09
  3.46213828E-09  1.59531859E-02 -4.77856499E-09 -8.21153988E-02  1.86588556E-01
  2.92171398E-01 -3.56301538E-01  2.39034699E-02  1.07365245E-08 -1.95183646E-01
  8.16690924E-03  6.64020134E-09  1.48236602E-02  3.49906186E-09 -1.13981093E-09
 -1.97926362E-02  2.14869237E-02 -7.22801767E-09  2.23563073E-08  4.07954267E-08
  1.42605663E-08  1.65657112E-07  3.99005341E-01  6.42724819E-10  9.50146525E-08
  2.38227828E-01  8.36741624E-09 -2.60056198E-02 -1.62495302E-02  5.73105455E-09
 -1.05214597E-08  1.07574779E-08 -1.88970349E-08 -3.12593354E-08 -9.57263651E-08
  5.58489305E-08  2.56334408E-01 -1.33674840E-08  2.20585876E-08  1.02256225E-01
  1.48676248E-09  3.10962770E-09  3.37730049E-02 -1.79523711E-08 -4.74198335E-09
  1.79210607E-08 -3.85375758E-08 -7.94513332E-08  1.48834063E-07  2.11391234E-08
  3.99005290E-01  8.06065693E-08  1.74326102E-08  2.38227797E-01 -5.97594046E-09
  2.60056219E-02 -1.62495240E-02  6.72921557E-09 -5.69512054E-09 -2.33402944E-02
  6.38791139E-02  8.46441118E-02 -9.87479685E-02  3.74862248E-01 -9.35892399E-08
 -6.08224285E-02  2.26127973E-01 -5.54191531E-08  5.18599807E-03  6.09837198E-09
  8.09175787E-09  1.45946989E-02 -2.00965149E-02  8.18896809E-02 -1.75338487E-01
 -1.52448859E-01  1.84137276E-07  1.50977208E-01 -6.67631894E-08  1.08877366E-08
  7.97104743E-02 -2.82308621E-08  3.53672546E-03 -4.26777586E-10 -8.33209048E-09
 -6.05141648E-02  7.77551870E-09 -2.33403525E-02  6.38792528E-02  8.46443557E-02
  9.87477159E-02  3.74862623E-01 -1.07847682E-07  6.08223005E-02  2.26128187E-01
 -6.39862246E-08  5.18601154E-03 -6.72708392E-09  3.11833310E-09  1.45946952E-02
  2.00965535E-02  5.63607859E-02 -1.30776232E-01 -2.42798529E-01 -2.51209494E-01
 -2.93635806E-01  6.52642769E-08 -1.35587592E-01 -1.70378087E-01  3.77750821E-08
 -1.60291807E-02 -1.07506915E-08 -7.60185965E-09  2.27320828E-04  3.11617402E-02
 -4.30438389E-08  9.13499817E-08  9.23222516E-08  3.36979338E-01 -1.12106625E-07
  8.05651949E-08  4.00932973E-02 -6.39416821E-08  3.98106647E-08 -1.50588105E-09
 -3.19946686E-09  9.48241766E-09  3.59433413E-08  9.20296791E-03 -5.63607686E-02
  1.30776177E-01  2.42798478E-01 -2.51209645E-01  2.93635417E-01  1.32918827E-07
 -1.35587681E-01  1.70377847E-01  8.06504913E-08  1.60291756E-02  1.01150448E-08
 -6.37790857E-09 -2.27351002E-04  3.11617180E-02  1.40509423E-08 -2.93510091E-08
 -5.03962398E-08 -4.88904930E-09 -5.41265902E-08  4.74695766E-01 -6.65689118E-09
 -3.86731663E-08  3.35487147E-01  3.39239970E-09 -1.89743525E-02 -1.30133489E-02
 -2.46409053E-10  4.62748272E-09 -7.40160061E-09  2.05923986E-08 -1.32543666E-09
  1.39574446E-08  9.80554454E-09 -1.90999495E-08  5.20059437E-09 -2.64684182E-09
 -1.12773682E-08  4.90703682E-10  5.68976762E-02 -2.51261524E-09 -1.16690254E-09
 -3.83045313E-09  2.45491858E-09 -3.97952027E-09 -6.14336648E-09  4.45435373E-08
  4.28391763E-08 -4.74695796E-01  3.19217614E-08  2.82425003E-08 -3.35487168E-01
  1.03258056E-09 -1.89743607E-02  1.30133444E-02  3.37366769E-09 -2.31922945E-10
  7.61065116E-03 -1.91186436E-02 -4.81410928E-02  3.82733676E-01 -3.21941226E-01
 -4.85050456E-08  2.67226952E-01 -2.24664775E-01 -3.45419201E-08  2.83520251E-03
  6.80997460E-09 -1.53982973E-09 -2.30547591E-02  3.03244048E-04 -1.37108652E-08
  3.44931192E-08  1.17120739E-08 -6.56574015E-02 -5.47213025E-09 -1.37581809E-08
  6.91413189E-02 -2.10316788E-08 -1.02866499E-08  8.77240671E-10 -5.59227280E-09
 -1.34968165E-09  7.82657914E-10 -4.26086109E-02 -7.61063035E-03  1.91185963E-02
  4.81410317E-02  3.82733726E-01  3.21941208E-01  3.69580519E-08  2.67226996E-01
  2.24664758E-01  2.76675624E-08 -2.83521096E-03 -1.33104912E-10 -1.64452963E-09
  2.30547608E-02  3.03245683E-04  2.68427773E-02 -8.52037752E-02 -1.45978806E-01
  2.28840177E-02  2.43730993E-01 -3.32690042E-09  1.86907164E-02  3.47991300E-01
 -3.98492202E-09  4.87329630E-03 -5.64332181E-10  2.65759699E-09 -1.19772470E-02
 -6.47841048E-03 -8.39478363E-02  5.63042041E-02  9.12767368E-01 -4.62619349E-09
 -3.69860854E-01  4.03319454E-09  2.79288470E-08 -4.75044287E-01  1.00143135E-08
  7.74158163E-03  1.51241720E-09 -1.26721961E-09  9.07134342E-03 -3.68822250E-09
  2.68427795E-02 -8.52037812E-02 -1.45978786E-01 -2.28840193E-02  2.43730954E-01
 -2.59533018E-09 -1.86907082E-02  3.47991250E-01 -4.60826360E-09  4.87329358E-03
 -6.35885065E-12 -8.75765047E-10 -1.19772501E-02  6.47841151E-03 -5.17031027E-10
  1.71135543E-09 -4.29611232E-08  1.11328430E-08  2.37784236E-09 -2.63464108E-01
  3.43689006E-08  1.18863963E-08 -4.77355603E-01 -2.81668098E-09 -1.60831752E-02
 -1.71759164E-02 -7.40971494E-10 -1.74111478E-09  8.80366493E-10 -4.93921987E-09
  4.53605483E-08 -2.62675385E-09  5.59025773E-09  4.44728823E-01  3.72387274E-08
  3.32544085E-08  9.82133070E-01  1.26488966E-09  3.37137079E-09  2.00152166E-03
  7.70996814E-11  5.93301879E-10  2.54854189E-10  1.68390479E-09 -4.45050084E-09
  3.30048881E-09 -5.32788632E-09 -2.63464112E-01 -4.22421944E-10 -1.17539585E-08
 -4.77355614E-01  8.10784371E-10  1.60831717E-02 -1.71759202E-02  4.27899551E-10
 -5.17849169E-10  6.79970415E-02 -5.63922476E-02 -1.98077671E+00 -5.89850139E-02
  1.42491127E-01 -2.52665646E-09  4.61202044E-01  7.00401660E-01  1.92953483E-08
  1.34704833E-02 -1.64574356E-09  1.34191923E-09 -2.47254906E-02 -2.98707112E-02
 -3.10190156E-10 -1.78303998E-08  1.92001022E-07  6.74708699E-02  7.86160124E-09
 -8.90819339E-09  2.91547616E+00  1.16353868E-07 -1.60100614E-08 -5.11422342E-09
 -7.58635306E-11 -7.61563142E-10  1.56143382E-09  8.94483631E-02 -6.79970367E-02
  5.63922380E-02  1.98077651E+00 -5.89850112E-02 -1.42491126E-01  2.76356090E-09
  4.61201924E-01 -7.00401652E-01  8.78042386E-09 -1.34704777E-02  3.59294086E-10
  8.65280796E-10  2.47254873E-02 -2.98707109E-02  8.42192755E-02 -5.39328082E-02
 -2.50948257E+00  7.08698216E-02 -5.25085246E-02 -5.38544919E-09  1.23053619E+00
  2.37871132E-01  1.77217413E-08  4.61698557E-02 -4.53493091E-11 -5.31668763E-10
 -2.17623520E-02 -2.11912892E-02 -7.57778392E-02 -1.14935608E-01  4.57293059E+00
  3.55680809E-09 -7.83602691E-03 -9.96105619E-09 -1.36087683E-07  2.53653273E+00
 -1.17761029E-08 -6.04166595E-02 -4.73795474E-11  3.36906846E-10  6.64768007E-02
 -4.72215220E-09  8.42192801E-02 -5.39328080E-02 -2.50948274E+00 -7.08698185E-02
 -5.25085147E-02  2.26730430E-09 -1.23053622E+00  2.37871206E-01  5.50946190E-09
  4.61698589E-02 -9.45505043E-10  8.87871726E-10 -2.17623515E-02  2.11912928E-02
 -1.27965006E-09 -4.71220787E-09  2.02015762E-08 -7.53967234E-09 -4.13057237E-09
 -1.24160994E-01 -1.51917778E-08 -1.08092070E-08  3.28611132E-03  2.00291777E-09
  7.10684552E-02  3.59704850E-02  7.52278032E-10 -2.94882806E-09  1.99115849E-09
 -4.26168721E-08  3.08204903E-08 -1.51571976E-08  1.61926540E-08 -9.75172750E-01
 -1.09599544E-08 -1.91973932E-08  1.04482585E+00 -2.38323877E-09 -2.23496642E-09
 -5.86763241E-02  9.55027780E-10  2.42363170E-09  7.20797621E-10 -4.28525992E-09
 -1.12461630E-08  1.37549124E-09 -1.50361969E-09 -1.24160984E-01 -7.77491289E-09
  1.11121863E-08  3.28609967E-03 -2.01338852E-10 -7.10684541E-02  3.59704862E-02
  3.52076770E-10  9.25933275E-10  3.03349277E-02 -1.77735601E-01 -2.93010677E-01
 -6.99018684E-02  3.44523172E-02 -7.09006588E-09  4.00478658E-01  8.01074844E-02
  1.82875912E-08  1.69867382E-03 -1.55028463E-09 -1.87470105E-09  6.84095098E-02
 -2.59410636E-02  2.08795600E-02 -6.72639913E-01  1.55437405E+00 -4.02235629E-08
  9.02840283E-01  2.29585615E-08 -1.86841605E-08 -3.77905318E-01 -3.20023150E-08
  5.03871804E-02 -3.20277967E-09  3.04268894E-09 -9.49592095E-02  1.55645310E-08
  3.03349323E-02 -1.77735607E-01 -2.93010719E-01  6.99018436E-02  3.44523111E-02
  8.65754819E-09 -4.00478671E-01  8.01075617E-02 -7.07751748E-09  1.69867119E-03
  1.95631496E-09 -4.59113820E-10  6.84095099E-02  2.59410537E-02  5.42098255E-02
 -1.65688489E-01 -2.62464152E-01 -4.21905010E-02 -1.60273156E-01 -2.64422185E-08
  6.90131983E-01  6.08170193E-01  4.52041623E-08 -5.14490089E-02  1.86850050E-09
  2.49083636E-09  5.20203410E-03  8.95481442E-02 -1.18389101E-08  3.85094937E-07
 -1.01807591E-07  8.82059317E-01  1.07723433E-07 -8.38941182E-09 -1.51952498E-01
  2.71333973E-08 -1.62584064E-08  1.99643715E-08 -2.64408725E-09 -2.49043628E-09
 -5.80329448E-08 -1.19215240E-01 -5.42098059E-02  1.65688503E-01  2.62464040E-01
 -4.21904241E-02  1.60273318E-01 -6.44340264E-09  6.90131576E-01 -6.08170237E-01
  1.36350859E-08  5.14489776E-02  1.26719603E-10  2.02910140E-09 -5.20199350E-03
  8.95480894E-02  3.16575921E-02  3.34945530E-02 -1.60177528E-01 -9.25544259E-02
  2.09813264E-01 -1.07619831E-08  6.03524301E-01  2.19354474E-02  1.51103110E-08
 -5.26035868E-02  3.91945867E-09  3.17205849E-09  5.67722616E-02  9.41926149E-02
 -4.29634207E-02  1.38393841E+00 -4.82239034E-01 -2.79278939E-07  2.55997499E-01
 -1.55945386E-08  3.46421564E-08  6.70971940E-02  1.11347006E-08  5.81095744E-02
 -1.10505875E-09 -2.26695134E-09 -1.59682834E-01  4.69068897E-08  3.16576257E-02
  3.34944610E-02 -1.60177702E-01  9.25544175E-02  2.09813159E-01 -3.63567732E-10
 -6.03524672E-01  2.19358450E-02 -8.22857784E-10 -5.26036203E-02 -1.14145515E-09
 -3.53061554E-10  5.67722587E-02 -9.41926761E-02  1.27442648E-02 -5.12704728E-02
 -2.46925113E-01 -7.27097980E-02 -5.27960443E-01 -5.10551487E-08  2.81386836E-01
  1.02481833E+00  7.93922234E-08 -1.65694914E-02  4.47155791E-10 -9.93416321E-10
 -7.35932700E-03 -2.34337920E-02  5.42301211E-02  3.79770900E-01  6.36143542E-01
  4.97611927E-08  2.15618481E-01  7.25000514E-09 -2.18370764E-08 -5.37879400E-01
 -2.31480872E-08 -1.91883928E-01 -1.38225872E-08 -1.66181367E-09  2.89442090E-01
 -2.58554660E-08  1.27442612E-02 -5.12704888E-02 -2.46925101E-01  7.27098457E-02
 -5.27960472E-01  2.45574424E-08 -2.81386858E-01  1.02481833E+00 -3.38103128E-08
 -1.65694807E-02  2.03771014E-09  8.28838644E-10 -7.35932493E-03  2.34338061E-02
  3.58765726E-03 -4.77364378E-02 -2.90336244E-01 -5.18752524E-01 -3.07545852E-02
 -2.75301198E-07  9.50918029E-01 -1.49038883E-01  4.08150512E-07  3.72491109E-02
  9.28711579E-09  5.40894817E-12  2.82270167E-02 -8.60859758E-02  1.05655908E-08
 -4.26932310E-08  9.26694249E-08 -2.00074396E-01 -6.24859119E-08  2.25507257E-08
  5.57360872E-02  4.52392775E-08 -8.15946862E-08 -3.74669816E-08 -9.18682978E-08
 -4.40489904E-10  2.81802617E-08  4.21274395E-01 -3.58766143E-03  4.77364146E-02
  2.90336207E-01 -5.18752376E-01  3.07545438E-02  1.80116686E-07  9.50917920E-01
  1.49038930E-01 -2.49688792E-07 -3.72491031E-02  1.50727583E-08  8.12754526E-10
 -2.82270487E-02 -8.60859611E-02 -6.10810709E-09 -2.03512915E-09  1.89426046E-07
  1.46554981E-07  4.22926643E-08 -6.25271055E-01 -3.65262809E-07 -3.63086423E-08
  8.99684116E-01 -9.61377477E-09  3.64018071E-02  2.63561489E-03 -1.79486134E-08
  2.71020251E-08  2.51954759E-09 -5.05410112E-08 -5.44474142E-08  4.75665976E-08
 -5.65206298E-08  3.09823429E-08 -3.54793637E-08  5.92384449E-08 -1.03193497E-07
 -8.31149933E-09 -2.53068940E-01 -3.16706127E-09 -1.40662873E-08 -1.52594476E-07
 -1.32632676E-10 -2.11691662E-08 -9.52138294E-08  2.33529312E-07  3.50100469E-08
  6.25270937E-01 -3.77169896E-07 -1.31131984E-07 -8.99683921E-01  1.42701728E-08
  3.64018120E-02 -2.63560935E-03  3.95197410E-09  3.22942359E-08 -6.67436366E-09
 -3.13825029E-08  2.31680056E-08 -1.38306230E-07  3.75859801E-08 -6.77476234E-01
  6.53483062E-08 -7.59691854E-08  1.05945174E+00  8.08272035E-09 -1.82564989E-02
  3.02979705E-02 -2.76694207E-08 -9.21401540E-09  1.88502667E-08 -1.01788571E-07
  2.15232845E-07 -2.17754995E-08 -1.02623105E-07  2.79063967E-01 -3.03287893E-08
  1.81503801E-07 -1.04046875E+00 -6.98345048E-08  2.71291285E-08 -4.75682902E-02
  9.52658955E-09 -3.12660686E-08 -1.05615693E-09 -1.65114146E-08 -1.31206474E-07
  2.18269608E-07  4.83084941E-08 -6.77476348E-01 -2.71073423E-07 -6.83351182E-08
  1.05945190E+00  1.10374476E-08  1.82564885E-02  3.02979695E-02 -2.11455013E-08
  1.63497827E-08 -8.78295293E-03 -4.57961412E-02 -4.27728001E-01 -6.63372534E-01
  1.24832399E-01  2.33870879E-07  7.27284412E-01 -1.58996103E-01 -3.55463051E-07
  3.99048214E-02 -3.93415304E-09 -9.64774934E-09 -8.79844274E-02 -4.59248277E-02
  7.10737026E-02 -3.30611573E-01  1.14408440E+00  9.31652656E-09 -3.26641006E-01
 -7.12110435E-08 -9.12715276E-08  7.35003459E-01  2.79152287E-07 -2.74374077E-01
  2.27043577E-08  1.18916381E-08  6.49773994E-02 -5.72827581E-08 -8.78294778E-03
 -4.57961317E-02 -4.27728229E-01  6.63372648E-01  1.24832361E-01  1.39222800E-07
 -7.27284659E-01 -1.58996045E-01 -2.22728393E-07  3.99048257E-02 -8.91140918E-09
 -7.78246500E-09 -8.79844169E-02  4.59248515E-02 -7.18774756E-03 -1.25405342E-01
 -2.44459765E-01  2.67193745E-02 -6.73076956E-01  2.12029874E-08 -2.95477988E-01