
 Primary working directories    : /scratch/kmoore
 Secondary working directories  : /scratch/kmoore
 Wavefunction directory         : /scratch/kmoore/
 Main file repository           : /scratch/kmoore/

 SHA1      : b6b3a4772808bb2d43777f23454e145ddfe12dc3
 NAME      : 2015.1.1
 ARCHNAME  : linux/x86_64
 FC        : /soft/mvapich2/2.2b_psm/intel-15.0/bin/mpif90
 BLASLIB   : -L/soft/intel/15.0.1/composer_xe_2015.0.090/mkl/lib/intel64 -lmkl_intel_ilp64 -lmkl_sequential -lmkl_core
 id        : anlgov

 Nodes     nprocs
 b440         7
 Number of processes for MPI-2 version of Molpro:   nprocs(total)=    8   nprocs(compute)=    7   nprocs(helper)=    1

 Using customized tuning parameters: mindgm=1; mindgv=20; mindgc=4; mindgr=1; noblas=0; minvec=7
 default implementation of scratch files=sf  

 ***,CASPT2 calculation for the singlet state
 memory,1000,m
 
 noorient
 nosym
 geometry
 N     -0.265504206808349    -0.153017534925573     0.000000000000000
 N     -1.371144514043529     0.092681100636159     0.000000000000000
 O      1.432838789244959     0.052822809411175     0.000000000000000
 end
 
 nn(1)=1
 nn(2)=2
 nn(3)=3
 
 basis=cc-pVDZ
 {rhf,maxit=1000
   wf,22,1,2,0}
 {rmp2}
 {freq,noproject,symm=no
  print,hessian}
 

 Variables initialized (889), CPU time= 0.01 sec
 Commands  initialized (702), CPU time= 0.01 sec, 572 directives.
 Default parameters read. Elapsed time= 0.06 sec

 Checking input...
 Passed
1


                                         ***  PROGRAM SYSTEM MOLPRO  ***
                                       Copyright, TTI GmbH Stuttgart, 2015
                                    Version 2015.1 linked Jan  8 2016 07:59:11


 **********************************************************************************************************************************
 LABEL *   CASPT2 calculation for the singlet state                                      
  64 bit mpp version                                                                     DATE: 19-Mar-19          TIME: 13:00:34  
 **********************************************************************************************************************************

 SHA1:             b6b3a4772808bb2d43777f23454e145ddfe12dc3
 **********************************************************************************************************************************

 Variable memory set to 1000000000 words,  buffer space   230000 words

 ZSYMEL=NOSYM
 

Geometry recognized as XYZ

 SETTING NN(1)          =         1.00000000                                  
 SETTING NN(2)          =         2.00000000                                  
 SETTING NN(3)          =         3.00000000                                  
 SETTING BASIS          =    CC-PVDZ


 Recomputing integrals since basis changed


 Using spherical harmonics

 Library entry N      S cc-pVDZ              selected for orbital group  1
 Library entry N      P cc-pVDZ              selected for orbital group  1
 Library entry N      D cc-pVDZ              selected for orbital group  1
 Library entry O      S cc-pVDZ              selected for orbital group  2
 Library entry O      P cc-pVDZ              selected for orbital group  2
 Library entry O      D cc-pVDZ              selected for orbital group  2

1PROGRAM * SEWARD (Integral evaluation for generally contracted gaussian basis sets)     Author: Roland Lindh, 1990

 Geometry written to block  1 of record 700


 Point group  C1  



 ATOMIC COORDINATES

 NR  ATOM    CHARGE       X              Y              Z

   1  N       7.00   -0.501730236   -0.289161233    0.000000000
   2  N       7.00   -2.591087609    0.175141897    0.000000000
   3  O       8.00    2.707672892    0.099820643    0.000000000

 Bond lengths in Bohr (Angstrom)

 1-2  2.140325122  1-3  3.232889627
     ( 1.132611279)     ( 1.710771516)

 Bond angles

  2-1-3  160.56057162

 NUCLEAR CHARGE:                   22
 NUMBER OF PRIMITIVE AOS:          81
 NUMBER OF SYMMETRY AOS:           78
 NUMBER OF CONTRACTIONS:           42   (  42A   )
 NUMBER OF CORE ORBITALS:           3   (   3A   )
 NUMBER OF VALENCE ORBITALS:       12   (  12A   )


 NUCLEAR REPULSION ENERGY   50.78312459

 EXTRA SYMMETRY OF AOS IN SYMMETRY 1:   1 1 1 1 1 2 1 1 2 1   1 2 1 2 1 1 1 1 1 2   1 1 2 1 1 2 1 2 1 1   1 1 1 2 1 1 2 1 1 2
                                        1 2

 Eigenvalues of metric

         1 0.365E-02 0.213E-01 0.385E-01 0.675E-01 0.892E-01 0.118E+00 0.118E+00 0.133E+00


 Contracted 2-electron integrals neglected if value below      1.0D-11
 AO integral compression algorithm  1   Integral accuracy      1.0D-11

     1.835 MB (compressed) written to integral file ( 60.4%)

     Node minimum: 0.262 MB, node maximum: 0.262 MB


 NUMBER OF SORTED TWO-ELECTRON INTEGRALS:      58695.     BUFFER LENGTH:  32768
 NUMBER OF SEGMENTS:   1  SEGMENT LENGTH:      58695      RECORD LENGTH: 524288

 Memory used in sort:       0.62 MW

 SORT1 READ      544483. AND WROTE       30568. INTEGRALS IN      1 RECORDS. CPU TIME:     0.01 SEC, REAL TIME:     0.01 SEC
 SORT2 READ      205882. AND WROTE      408156. INTEGRALS IN      7 RECORDS. CPU TIME:     0.00 SEC, REAL TIME:     0.01 SEC

 Node minimum:       57921.  Node maximum:       58695. integrals

 OPERATOR DM      FOR CENTER  0  COORDINATES:    0.000000    0.000000    0.000000


 **********************************************************************************************************************************
 DATASETS  * FILE   NREC   LENGTH (MB)   RECORD NAMES
              1      18       19.17       500      610      700      900      950      970     1000      129      960     1100   
                                          VAR    BASINP    GEOM    SYMINP    ZMAT    AOBASIS   BASIS     P2S    ABASIS      S 
                                         1400     1410     1200     1210     1080     1600     1650     1700   
                                           T        V       H0       H01     AOSYM     SMH    MOLCAS    OPER   

 PROGRAMS   *        TOTAL       INT
 CPU TIMES  *         0.40      0.29
 REAL TIME  *         0.90 SEC
 DISK USED  *        30.49 MB      
 GA USED    *         0.00 MB       (max)       0.00 MB       (current)
 **********************************************************************************************************************************

1PROGRAM * RHF-SCF (OPEN SHELL)       Authors: W. Meyer, H.-J. Werner


 NUMBER OF ELECTRONS:      12+   10-    SPACE SYMMETRY=1    SPIN SYMMETRY: Triplet 
 CONVERGENCE THRESHOLDS:    1.00E-06 (Density)    1.00E-07 (Energy)
 MAX. NUMBER OF ITERATIONS:     1000
 INTERPOLATION TYPE:            DIIS
 INTERPOLATION STEPS:              2 (START)      1 (STEP)
 LEVEL SHIFTS:                 -0.60 (CLOSED) -0.30 (OPEN) 



 Orbital guess generated from atomic densities. Full valence occupancy:   15

 Molecular orbital dump at record        2100.2

 Initial alpha occupancy:  12
 Initial beta  occupancy:  10
 Wave function symmetry:    1

 ITERATION    DDIFF          GRAD             ENERGY        2-EL.EN.            DIPOLE MOMENTS         DIIS   ORB.
    1      0.000D+00      0.000D+00      -183.49739072    231.604775   -1.32819   -0.09170   -0.00000    0    start
    2      0.000D+00      0.115D-01      -183.59759707    233.762245   -0.56366   -0.01194   -0.00000    1    diag,B
    3      0.223D-01      0.503D-02      -183.62064329    234.149407   -0.48374   -0.02726   -0.00000    2    diag,B
    4      0.785D-02      0.273D-02      -183.63934248    234.353469   -0.37422   -0.01940   -0.00000    3    diag,B
    5      0.606D-02      0.170D-02      -183.64810595    234.443334   -0.26113   -0.02180    0.00000    4    diag,B
    6      0.523D-02      0.753D-03      -183.64943868    234.498121   -0.22760   -0.01916   -0.00000    5    diag,B
    7      0.196D-02      0.355D-03      -183.64969496    234.509076   -0.20253   -0.01963    0.00000    6    fixocc
    8      0.104D-02      0.113D-03      -183.64971575    234.518417   -0.19604   -0.01986    0.00000    7    diag,B
    9      0.389D-03      0.429D-04      -183.64971814    234.517992   -0.19611   -0.01941    0.00000    8    diag,B
   10      0.117D-03      0.193D-04      -183.64971881    234.519656   -0.19458   -0.01938   -0.00000    9    orth
   11      0.643D-04      0.839D-05      -183.64971895    234.519805   -0.19490   -0.01929    0.00000    9    diag,B
   12      0.256D-04      0.438D-05      -183.64971898    234.519743   -0.19477   -0.01930    0.00000    9    diag,B
   13      0.108D-04      0.302D-05      -183.64971900    234.519745   -0.19484   -0.01929   -0.00000    9    diag,B
   14      0.161D-04      0.123D-05      -183.64971900    234.519730   -0.19486   -0.01930   -0.00000    9    diag,B
   15      0.743D-05      0.318D-06      -183.64971900    234.519725   -0.19487   -0.01930    0.00000    9    diag,B
   16      0.108D-05      0.142D-06      -183.64971900    234.519729   -0.19486   -0.01930   -0.00000    9    diag,B
   17      0.441D-06      0.487D-07      -183.64971900    234.519731   -0.19486   -0.01930   -0.00000    0    orth

 Final alpha occupancy:  12
 Final beta  occupancy:  10

 !RHF STATE 1.1 Energy               -183.649719004633
 Nuclear energy                        50.78312459
 One-electron energy                 -351.69270890
 Two-electron energy                  117.25986531
 Virial quotient                       -0.99971054
 !RHF STATE 1.1 Dipole moment          -0.19485874    -0.01930039    -0.00000000
 Dipole moment /Debye                  -0.49524907    -0.04905348    -0.00000000

 Orbital energies:

         1.1          2.1          3.1          4.1          5.1          6.1          7.1          8.1          9.1         10.1
    -20.631218   -15.705540   -15.702067    -1.459764    -1.253358    -0.807104    -0.654771    -0.619982    -0.610035    -0.526222

        11.1         12.1         13.1         14.1
     -0.668689    -0.564168     0.146625     0.151174

 HOMO     12.1    -0.564168 =     -15.3518eV
 LUMO     13.1     0.146625 =       3.9899eV
 LUMO-HOMO         0.710793 =      19.3417eV


 **********************************************************************************************************************************
 DATASETS  * FILE   NREC   LENGTH (MB)   RECORD NAMES
              1      18       19.17       500      610      700      900      950      970     1000      129      960     1100   
                                          VAR    BASINP    GEOM    SYMINP    ZMAT    AOBASIS   BASIS     P2S    ABASIS      S 
                                         1400     1410     1200     1210     1080     1600     1650     1700   
                                           T        V       H0       H01     AOSYM     SMH    MOLCAS    OPER   

              2       4        0.45       700     1000      520     2100   
                                         GEOM     BASIS   MCVARS     RHF  

 PROGRAMS   *        TOTAL       RHF       INT
 CPU TIMES  *         0.43      0.03      0.29
 REAL TIME  *         0.93 SEC
 DISK USED  *       169.97 MB      
 SF USED    *         0.01 MB      
 GA USED    *         0.00 MB       (max)       0.00 MB       (current)
 **********************************************************************************************************************************


1PROGRAM * RMP2 (Restricted open-shell)     Authors: H.-J. Werner, 2001


 Convergence thresholds:  THRVAR = 1.00D-12  THRDEN = 1.00D-08

 Number of core orbitals:           3 (   3 )
 Number of closed-shell orbitals:   7 (   7 )
 Number of active  orbitals:        2 (   2 )
 Number of external orbitals:      30 (  30 )

 Reading UHF information from record   2100.2

                               TOTAL       A-A         B-B         A-B
 Pair energies:            -0.43882748 -0.06865842 -0.05001991 -0.32014915
 Singles energies:         -0.00468630 -0.00230665 -0.00237965

 Reference energy                    -183.649719004633
 Correlation energy                    -0.443513785500
 !RMP2 STATE 1.1 Energy              -184.093232790133


 **********************************************************************************************************************************
 DATASETS  * FILE   NREC   LENGTH (MB)   RECORD NAMES
              1      18       19.17       500      610      700      900      950      970     1000      129      960     1100   
                                          VAR    BASINP    GEOM    SYMINP    ZMAT    AOBASIS   BASIS     P2S    ABASIS      S 
                                         1400     1410     1200     1210     1080     1600     1650     1700   
                                           T        V       H0       H01     AOSYM     SMH    MOLCAS    OPER   

              2       4        0.45       700     1000      520     2100   
                                         GEOM     BASIS   MCVARS     RHF  

 PROGRAMS   *        TOTAL      RMP2       RHF       INT
 CPU TIMES  *         0.47      0.04      0.03      0.29
 REAL TIME  *         0.99 SEC
 DISK USED  *       169.97 MB      
 SF USED    *         3.56 MB      
 GA USED    *         0.00 MB       (max)       0.00 MB       (current)
 **********************************************************************************************************************************


 PROGRAM * HESSIAN

 Computing numerical hessian using default procedure for command RMP2

 Symmetry elements for unique displacements: Z  

 Using no symmetry in wavefunction calculations

 Running default procedure: RHF-SCF000  RMP2
 

 Numerically approximating hessian using central energy differences
 Task   1   Incrementing variables GX1,GX1        by  0.010 0.010
 Task   2   Incrementing variables GX1,GX1        by -0.010-0.010
 Task   3   Incrementing variables GY1,GX1        by  0.010 0.010
 Task   4   Incrementing variables GY1,GX1        by -0.010-0.010
 Task   5   Incrementing variables GY1,GY1        by  0.010 0.010
 Task   6   Incrementing variables GY1,GY1        by -0.010-0.010
 Task   7   Incrementing variables GZ1,GZ1        by  0.010 0.010

 Skipping negative increment of variables    3   3 due to symmetry.
 Task   8   Incrementing variables GX2,GX1        by  0.010 0.010
 Task   9   Incrementing variables GX2,GX1        by -0.010-0.010
 Task  10   Incrementing variables GX2,GY1        by  0.010 0.010
 Task  11   Incrementing variables GX2,GY1        by -0.010-0.010
 Task  12   Incrementing variables GX2,GX2        by  0.010 0.010
 Task  13   Incrementing variables GX2,GX2        by -0.010-0.010
 Task  14   Incrementing variables GY2,GX1        by  0.010 0.010
 Task  15   Incrementing variables GY2,GX1        by -0.010-0.010
 Task  16   Incrementing variables GY2,GY1        by  0.010 0.010
 Task  17   Incrementing variables GY2,GY1        by -0.010-0.010
 Task  18   Incrementing variables GY2,GX2        by  0.010 0.010
 Task  19   Incrementing variables GY2,GX2        by -0.010-0.010
 Task  20   Incrementing variables GY2,GY2        by  0.010 0.010
 Task  21   Incrementing variables GY2,GY2        by -0.010-0.010
 Task  22   Incrementing variables GZ2,GZ1        by  0.010 0.010

 Skipping negative increment of variables    6   3 due to symmetry.
 Task  23   Incrementing variables GZ2,GZ2        by  0.010 0.010

 Skipping negative increment of variables    6   6 due to symmetry.
 Task  24   Incrementing variables GX3,GX1        by  0.010 0.010
 Task  25   Incrementing variables GX3,GX1        by -0.010-0.010
 Task  26   Incrementing variables GX3,GY1        by  0.010 0.010
 Task  27   Incrementing variables GX3,GY1        by -0.010-0.010
 Task  28   Incrementing variables GX3,GX2        by  0.010 0.010
 Task  29   Incrementing variables GX3,GX2        by -0.010-0.010
 Task  30   Incrementing variables GX3,GY2        by  0.010 0.010
 Task  31   Incrementing variables GX3,GY2        by -0.010-0.010
 Task  32   Incrementing variables GX3,GX3        by  0.010 0.010
 Task  33   Incrementing variables GX3,GX3        by -0.010-0.010
 Task  34   Incrementing variables GY3,GX1        by  0.010 0.010
 Task  35   Incrementing variables GY3,GX1        by -0.010-0.010
 Task  36   Incrementing variables GY3,GY1        by  0.010 0.010
 Task  37   Incrementing variables GY3,GY1        by -0.010-0.010
 Task  38   Incrementing variables GY3,GX2        by  0.010 0.010
 Task  39   Incrementing variables GY3,GX2        by -0.010-0.010
 Task  40   Incrementing variables GY3,GY2        by  0.010 0.010
 Task  41   Incrementing variables GY3,GY2        by -0.010-0.010
 Task  42   Incrementing variables GY3,GX3        by  0.010 0.010
 Task  43   Incrementing variables GY3,GX3        by -0.010-0.010
 Task  44   Incrementing variables GY3,GY3        by  0.010 0.010
 Task  45   Incrementing variables GY3,GY3        by -0.010-0.010
 Task  46   Incrementing variables GZ3,GZ1        by  0.010 0.010

 Skipping negative increment of variables    9   3 due to symmetry.
 Task  47   Incrementing variables GZ3,GZ2        by  0.010 0.010

 Skipping negative increment of variables    9   6 due to symmetry.
 Task  48   Incrementing variables GZ3,GZ3        by  0.010 0.010

 Skipping negative increment of variables    9   9 due to symmetry.

 Task list generated. Total number of displacements:     48

 Starting task   1.  CPU=     0.00 sec, Elapsed=     0.00 sec
 Incrementing variable GX1              by  0.005292 ANG   to   -0.260212 ANG


 Recomputing integrals since geometry changed

1PROGRAM * SEWARD (Integral evaluation for generally contracted gaussian basis sets)     Author: Roland Lindh, 1990

 Geometry written to block  1 of record 700


 Point group  C1  



 ATOMIC COORDINATES

 NR  ATOM    CHARGE       X              Y              Z

   1  N       7.00   -0.491730236   -0.289161233    0.000000000
   2  N       7.00   -2.591087609    0.175141897    0.000000000
   3  O       8.00    2.707672892    0.099820643    0.000000000

 Bond lengths in Bohr (Angstrom)

 1-2  2.150088086  1-3  3.222962500
     ( 1.137777616)     ( 1.705518307)

 Bond angles

  2-1-3  160.59698991

 NUCLEAR CHARGE:                   22
 NUMBER OF PRIMITIVE AOS:          81
 NUMBER OF SYMMETRY AOS:           78
 NUMBER OF CONTRACTIONS:           42   (  42A   )
 NUMBER OF CORE ORBITALS:           3   (   3A   )
 NUMBER OF VALENCE ORBITALS:       12   (  12A   )


 NUCLEAR REPULSION ENERGY   50.73252427

 EXTRA SYMMETRY OF AOS IN SYMMETRY 1:   1 1 1 1 1 2 1 1 2 1   1 2 1 2 1 1 1 1 1 2   1 1 2 1 1 2 1 2 1 1   1 1 1 2 1 1 2 1 1 2
                                        1 2

 Eigenvalues of metric

         1 0.371E-02 0.211E-01 0.386E-01 0.685E-01 0.899E-01 0.118E+00 0.118E+00 0.134E+00


 Contracted 2-electron integrals neglected if value below      1.0D-11
 AO integral compression algorithm  1   Integral accuracy      1.0D-11

     1.835 MB (compressed) written to integral file ( 60.4%)

     Node minimum: 0.262 MB, node maximum: 0.262 MB


 NUMBER OF SORTED TWO-ELECTRON INTEGRALS:      58695.     BUFFER LENGTH:  32768
 NUMBER OF SEGMENTS:   1  SEGMENT LENGTH:      58695      RECORD LENGTH: 524288

 Memory used in sort:       0.62 MW

 SORT1 READ      544483. AND WROTE       30568. INTEGRALS IN      1 RECORDS. CPU TIME:     0.00 SEC, REAL TIME:     0.01 SEC
 SORT2 READ      205882. AND WROTE      408156. INTEGRALS IN      7 RECORDS. CPU TIME:     0.00 SEC, REAL TIME:     0.00 SEC

 Node minimum:       57921.  Node maximum:       58695. integrals

 OPERATOR DM      FOR CENTER  0  COORDINATES:    0.000000    0.000000    0.000000
1PROGRAM * RHF-SCF (OPEN SHELL)       Authors: W. Meyer, H.-J. Werner


 NUMBER OF ELECTRONS:      12+   10-    SPACE SYMMETRY=1    SPIN SYMMETRY: Triplet 
 CONVERGENCE THRESHOLDS:    1.00E-07 (Density)    1.00E-08 (Energy)
 MAX. NUMBER OF ITERATIONS:     1000
 INTERPOLATION TYPE:            DIIS
 INTERPOLATION STEPS:              2 (START)      1 (STEP)
 LEVEL SHIFTS:                 -0.60 (CLOSED) -0.30 (OPEN) 

 Number of closed-shell orbitals:   10 (  10 )
 Number of open-shell orbitals:      2 (   2 )


 Molecular orbitals read from record     2100.2  Type=RHF/CANONICAL (state 1.1)

 Molecular orbital dump at record        2100.1

 ITERATION    DDIFF          GRAD             ENERGY        2-EL.EN.            DIPOLE MOMENTS         DIIS   ORB.
    1      0.000D+00      0.000D+00      -183.64654130    234.466418   -0.19315   -0.01917   -0.00000    0    start
    2      0.000D+00      0.240D-03      -183.64656801    234.428240   -0.19451   -0.01914   -0.00000    1    diag,B
    3      0.454D-03      0.814D-04      -183.64657275    234.421239   -0.19480   -0.01915   -0.00000    2    diag,B
    4      0.224D-03      0.266D-04      -183.64657360    234.421469   -0.19545   -0.01913   -0.00000    3    diag,B
    5      0.910D-04      0.915D-05      -183.64657375    234.421142   -0.19576   -0.01914   -0.00000    4    diag,B
    6      0.251D-04      0.474D-05      -183.64657380    234.420958   -0.19607   -0.01913   -0.00000    5    diag,B
    7      0.129D-04      0.217D-05      -183.64657381    234.420802   -0.19615   -0.01914   -0.00000    6    diag,B
    8      0.677D-05      0.114D-05      -183.64657381    234.420771   -0.19618   -0.01914   -0.00000    7    orth
    9      0.414D-05      0.698D-06      -183.64657381    234.420769   -0.19617   -0.01914   -0.00000    8    diag,B
   10      0.334D-05      0.332D-06      -183.64657381    234.420775   -0.19617   -0.01914   -0.00000    9    diag,B
   11      0.216D-05      0.105D-06      -183.64657381    234.420780   -0.19617   -0.01914   -0.00000    9    diag,B
   12      0.448D-06      0.385D-07      -183.64657381    234.420781   -0.19617   -0.01914   -0.00000    9    diag,B
   13      0.137D-06      0.164D-07      -183.64657381    234.420781   -0.19617   -0.01914   -0.00000    9    diag,B
   14      0.556D-07      0.774D-08      -183.64657381    234.420781   -0.19617   -0.01914   -0.00000    0    orth

 Final alpha occupancy:  12
 Final beta  occupancy:  10

 !RHF STATE 1.1 Energy               -183.646573809873
 Nuclear energy                        50.73252427
 One-electron energy                 -351.58948847
 Two-electron energy                  117.21039039
 Virial quotient                       -0.99983073
 !RHF STATE 1.1 Dipole moment          -0.19616745    -0.01913743    -0.00000000
 Dipole moment /Debye                  -0.49857526    -0.04863931    -0.00000000

 Orbital energies:

         1.1          2.1          3.1          4.1          5.1          6.1          7.1          8.1          9.1         10.1
    -20.631243   -15.707196   -15.703866    -1.456355    -1.254094    -0.808766    -0.654739    -0.618736    -0.608235    -0.525706

        11.1         12.1         13.1         14.1
     -0.668682    -0.562154     0.143895     0.148497

 HOMO     12.1    -0.562154 =     -15.2970eV
 LUMO     13.1     0.143895 =       3.9156eV
 LUMO-HOMO         0.706049 =      19.2126eV


 **********************************************************************************************************************************
 DATASETS  * FILE   NREC   LENGTH (MB)   RECORD NAMES
              1      19       19.35       500      610      700      900      950      970     1000      129      960     1100   
                                          VAR    BASINP    GEOM    SYMINP    ZMAT    AOBASIS   BASIS     P2S    ABASIS      S 
                                         1400     1410     1200     1210     1080     1600     1650     1700     2100   
                                           T        V       H0       H01     AOSYM     SMH    MOLCAS    OPER      RHF  

              2       5        0.49       700     1000      520     2100     5500   
                                         GEOM     BASIS   MCVARS     RHF     HINFO   

 PROGRAMS   *        TOTAL       RHF      RMP2       RHF       INT
 CPU TIMES  *         0.71      0.23      0.04      0.03      0.29
 REAL TIME  *         1.27 SEC
 DISK USED  *       171.47 MB      
 SF USED    *         3.56 MB      
 GA USED    *         0.00 MB       (max)       0.00 MB       (current)
 **********************************************************************************************************************************


1PROGRAM * RMP2 (Restricted open-shell)     Authors: H.-J. Werner, 2001


 Convergence thresholds:  THRVAR = 1.00D-12  THRDEN = 1.00D-08

 Number of core orbitals:           3 (   3 )
 Number of closed-shell orbitals:   7 (   7 )
 Number of active  orbitals:        2 (   2 )
 Number of external orbitals:      30 (  30 )

 Reading UHF information from record   2100.1

                               TOTAL       A-A         B-B         A-B
 Pair energies:            -0.44086252 -0.06898781 -0.05034905 -0.32152566
 Singles energies:         -0.00471923 -0.00232324 -0.00239599

 Reference energy                    -183.646573809872
 Correlation energy                    -0.445581747576
 !RMP2 STATE 1.1 Energy              -184.092155557448


 **********************************************************************************************************************************
 DATASETS  * FILE   NREC   LENGTH (MB)   RECORD NAMES
              1      19       19.35       500      610      700      900      950      970     1000      129      960     1100   
                                          VAR    BASINP    GEOM    SYMINP    ZMAT    AOBASIS   BASIS     P2S    ABASIS      S 
                                         1400     1410     1200     1210     1080     1600     1650     1700     2100   
                                           T        V       H0       H01     AOSYM     SMH    MOLCAS    OPER      RHF  

              2       5        0.49       700     1000      520     2100     5500   
                                         GEOM     BASIS   MCVARS     RHF     HINFO   

 PROGRAMS   *        TOTAL      RMP2      RMP2       RHF       INT
 CPU TIMES  *         0.76      0.04      0.04      0.03      0.29
 REAL TIME  *         1.31 SEC
 DISK USED  *       171.47 MB      
 SF USED    *         3.56 MB      
 GA USED    *         0.00 MB       (max)       0.00 MB       (current)
 **********************************************************************************************************************************
 Starting task   2.  CPU=     0.32 sec, Elapsed=     0.33 sec
 Incrementing variable GX1              by -0.005292 ANG   to   -0.270796 ANG


 Recomputing integrals since geometry changed

1PROGRAM * SEWARD (Integral evaluation for generally contracted gaussian basis sets)     Author: Roland Lindh, 1990

 Geometry written to block  1 of record 700


 Point group  C1  



 ATOMIC COORDINATES

 NR  ATOM    CHARGE       X              Y              Z

   1  N       7.00   -0.511730236   -0.289161233    0.000000000
   2  N       7.00   -2.591087609    0.175141897    0.000000000
   3  O       8.00    2.707672892    0.099820643    0.000000000

 Bond lengths in Bohr (Angstrom)

 1-2  2.130564357  1-3  3.242817201
     ( 1.127446104)     ( 1.716024962)

 Bond angles

  2-1-3  160.52349263

 NUCLEAR CHARGE:                   22
 NUMBER OF PRIMITIVE AOS:          81
 NUMBER OF SYMMETRY AOS:           78
 NUMBER OF CONTRACTIONS:           42   (  42A   )
 NUMBER OF CORE ORBITALS:           3   (   3A   )
 NUMBER OF VALENCE ORBITALS:       12   (  12A   )


 NUCLEAR REPULSION ENERGY   50.83497815

 EXTRA SYMMETRY OF AOS IN SYMMETRY 1:   1 1 1 1 1 2 1 1 2 1   1 2 1 2 1 1 1 1 1 2   1 1 2 1 1 2 1 2 1 1   1 1 1 2 1 1 2 1 1 2
                                        1 2

 Eigenvalues of metric

         1 0.359E-02 0.214E-01 0.384E-01 0.664E-01 0.886E-01 0.117E+00 0.117E+00 0.133E+00


 Contracted 2-electron integrals neglected if value below      1.0D-11
 AO integral compression algorithm  1   Integral accuracy      1.0D-11

     1.835 MB (compressed) written to integral file ( 60.4%)

     Node minimum: 0.262 MB, node maximum: 0.262 MB


 NUMBER OF SORTED TWO-ELECTRON INTEGRALS:      58695.     BUFFER LENGTH:  32768
 NUMBER OF SEGMENTS:   1  SEGMENT LENGTH:      58695      RECORD LENGTH: 524288

 Memory used in sort:       0.62 MW

 SORT1 READ      544483. AND WROTE       30568. INTEGRALS IN      1 RECORDS. CPU TIME:     0.01 SEC, REAL TIME:     0.01 SEC
 SORT2 READ      205882. AND WROTE      408156. INTEGRALS IN      7 RECORDS. CPU TIME:     0.00 SEC, REAL TIME:     0.00 SEC

 Node minimum:       57921.  Node maximum:       58695. integrals

 OPERATOR DM      FOR CENTER  0  COORDINATES:    0.000000    0.000000    0.000000
1PROGRAM * RHF-SCF (OPEN SHELL)       Authors: W. Meyer, H.-J. Werner


 NUMBER OF ELECTRONS:      12+   10-    SPACE SYMMETRY=1    SPIN SYMMETRY: Triplet 
 CONVERGENCE THRESHOLDS:    1.00E-07 (Density)    1.00E-08 (Energy)
 MAX. NUMBER OF ITERATIONS:     1000
 INTERPOLATION TYPE:            DIIS
 INTERPOLATION STEPS:              2 (START)      1 (STEP)
 LEVEL SHIFTS:                 -0.60 (CLOSED) -0.30 (OPEN) 

 Number of closed-shell orbitals:   10 (  10 )
 Number of open-shell orbitals:      2 (   2 )


 Molecular orbitals read from record     2100.2  Type=RHF/CANONICAL (state 1.1)

 Molecular orbital dump at record        2100.1

 ITERATION    DDIFF          GRAD             ENERGY        2-EL.EN.            DIPOLE MOMENTS         DIIS   ORB.
    1      0.000D+00      0.000D+00      -183.65268626    234.574555   -0.19655   -0.01943   -0.00000    0    start
    2      0.000D+00      0.241D-03      -183.65271299    234.613231   -0.19517   -0.01945   -0.00000    1    diag,B
    3      0.453D-03      0.812D-04      -183.65271763    234.620207   -0.19486   -0.01945   -0.00000    2    diag,B
    4      0.223D-03      0.264D-04      -183.65271845    234.619995   -0.19422   -0.01946   -0.00000    3    diag,B
    5      0.908D-04      0.891D-05      -183.65271859    234.620295   -0.19391   -0.01945   -0.00000    4    diag,B
    6      0.249D-04      0.456D-05      -183.65271863    234.620473   -0.19361   -0.01946   -0.00000    5    diag,B
    7      0.124D-04      0.208D-05      -183.65271864    234.620619   -0.19353   -0.01945    0.00000    6    diag,B
    8      0.640D-05      0.109D-05      -183.65271864    234.620647   -0.19350   -0.01945    0.00000    7    orth
    9      0.394D-05      0.647D-06      -183.65271864    234.620648   -0.19350   -0.01945   -0.00000    8    diag,B
   10      0.300D-05      0.303D-06      -183.65271864    234.620643   -0.19350   -0.01945   -0.00000    9    diag,B
   11      0.188D-05      0.996D-07      -183.65271864    234.620638   -0.19351   -0.01945   -0.00000    9    diag,B
   12      0.411D-06      0.375D-07      -183.65271864    234.620637   -0.19351   -0.01945   -0.00000    9    diag,B
   13      0.133D-06      0.163D-07      -183.65271864    234.620637   -0.19351   -0.01945   -0.00000    9    diag,B
   14      0.563D-07      0.740D-08      -183.65271864    234.620637   -0.19351   -0.01945   -0.00000    0    orth

 Final alpha occupancy:  12
 Final beta  occupancy:  10

 !RHF STATE 1.1 Energy               -183.652718644561
 Nuclear energy                        50.83497815
 One-electron energy                 -351.79801551
 Two-electron energy                  117.31031871
 Virial quotient                       -0.99958630
 !RHF STATE 1.1 Dipole moment          -0.19350652    -0.01945208    -0.00000000
 Dipole moment /Debye                  -0.49181231    -0.04943901    -0.00000000

 Orbital energies:

         1.1          2.1          3.1          4.1          5.1          6.1          7.1          8.1          9.1         10.1
    -20.631206   -15.703876   -15.700262    -1.463201    -1.252633    -0.805432    -0.654804    -0.621276    -0.611859    -0.526719

        11.1         12.1         13.1         14.1
     -0.668700    -0.566143     0.149373     0.153872

 HOMO     12.1    -0.566143 =     -15.4055eV
 LUMO     13.1     0.149373 =       4.0646eV
 LUMO-HOMO         0.715515 =      19.4702eV


 **********************************************************************************************************************************
 DATASETS  * FILE   NREC   LENGTH (MB)   RECORD NAMES
              1      19       19.35       500      610      700      900      950      970     1000      129      960     1100   
                                          VAR    BASINP    GEOM    SYMINP    ZMAT    AOBASIS   BASIS     P2S    ABASIS      S 
                                         1400     1410     1200     1210     1080     1600     1650     1700     2100   
                                           T        V       H0       H01     AOSYM     SMH    MOLCAS    OPER      RHF  

              2       5        0.49       700     1000      520     2100     5500   
                                         GEOM     BASIS   MCVARS     RHF     HINFO   

 PROGRAMS   *        TOTAL       RHF      RMP2       RHF       INT
 CPU TIMES  *         0.99      0.23      0.04      0.03      0.29
 REAL TIME  *         1.59 SEC
 DISK USED  *       171.47 MB      
 SF USED    *         3.56 MB      
 GA USED    *         0.00 MB       (max)       0.00 MB       (current)
 **********************************************************************************************************************************


1PROGRAM * RMP2 (Restricted open-shell)     Authors: H.-J. Werner, 2001


 Convergence thresholds:  THRVAR = 1.00D-12  THRDEN = 1.00D-08

 Number of core orbitals:           3 (   3 )
 Number of closed-shell orbitals:   7 (   7 )
 Number of active  orbitals:        2 (   2 )
 Number of external orbitals:      30 (  30 )

 Reading UHF information from record   2100.1

                               TOTAL       A-A         B-B         A-B
 Pair energies:            -0.43681623 -0.06833385 -0.04969469 -0.31878770
 Singles energies:         -0.00465469 -0.00229069 -0.00236401

 Reference energy                    -183.652718644560
 Correlation energy                    -0.441470922359
 !RMP2 STATE 1.1 Energy              -184.094189566920


 **********************************************************************************************************************************
 DATASETS  * FILE   NREC   LENGTH (MB)   RECORD NAMES
              1      19       19.35       500      610      700      900      950      970     1000      129      960     1100   
                                          VAR    BASINP    GEOM    SYMINP    ZMAT    AOBASIS   BASIS     P2S    ABASIS      S 
                                         1400     1410     1200     1210     1080     1600     1650     1700     2100   
                                           T        V       H0       H01     AOSYM     SMH    MOLCAS    OPER      RHF  

              2       5        0.49       700     1000      520     2100     5500   
                                         GEOM     BASIS   MCVARS     RHF     HINFO   

 PROGRAMS   *        TOTAL      RMP2      RMP2       RHF       INT
 CPU TIMES  *         1.03      0.04      0.04      0.03      0.29
 REAL TIME  *         1.64 SEC
 DISK USED  *       171.47 MB      
 SF USED    *         3.56 MB      
 GA USED    *         0.00 MB       (max)       0.00 MB       (current)
 **********************************************************************************************************************************
 Starting task   3.  CPU=     0.63 sec, Elapsed=     0.65 sec
 Incrementing variable GY1              by  0.005292 ANG   to   -0.147726 ANG
 Incrementing variable GX1              by  0.005292 ANG   to   -0.260212 ANG


 Recomputing integrals since geometry changed

1PROGRAM * SEWARD (Integral evaluation for generally contracted gaussian basis sets)     Author: Roland Lindh, 1990

 Geometry written to block  1 of record 700


 Point group  C1  



 ATOMIC COORDINATES

 NR  ATOM    CHARGE       X              Y              Z

   1  N       7.00   -0.491730236   -0.279161233    0.000000000
   2  N       7.00   -2.591087609    0.175141897    0.000000000
   3  O       8.00    2.707672892    0.099820643    0.000000000

 Bond lengths in Bohr (Angstrom)

 1-2  2.147950817  1-3  3.221770886
     ( 1.136646623)     ( 1.704887731)

 Bond angles

  2-1-3  161.03398294

 NUCLEAR CHARGE:                   22
 NUMBER OF PRIMITIVE AOS:          81
 NUMBER OF SYMMETRY AOS:           78
 NUMBER OF CONTRACTIONS:           42   (  42A   )
 NUMBER OF CORE ORBITALS:           3   (   3A   )
 NUMBER OF VALENCE ORBITALS:       12   (  12A   )


 NUCLEAR REPULSION ENERGY   50.76162718

 EXTRA SYMMETRY OF AOS IN SYMMETRY 1:   1 1 1 1 1 2 1 1 2 1   1 2 1 2 1 1 1 1 1 2   1 1 2 1 1 2 1 2 1 1   1 1 1 2 1 1 2 1 1 2
                                        1 2

 Eigenvalues of metric

         1 0.367E-02 0.211E-01 0.386E-01 0.682E-01 0.897E-01 0.118E+00 0.118E+00 0.133E+00


 Contracted 2-electron integrals neglected if value below      1.0D-11
 AO integral compression algorithm  1   Integral accuracy      1.0D-11

     1.835 MB (compressed) written to integral file ( 60.4%)

     Node minimum: 0.262 MB, node maximum: 0.262 MB


 NUMBER OF SORTED TWO-ELECTRON INTEGRALS:      58695.     BUFFER LENGTH:  32768
 NUMBER OF SEGMENTS:   1  SEGMENT LENGTH:      58695      RECORD LENGTH: 524288

 Memory used in sort:       0.62 MW

 SORT1 READ      544483. AND WROTE       30568. INTEGRALS IN      1 RECORDS. CPU TIME:     0.01 SEC, REAL TIME:     0.01 SEC
 SORT2 READ      205879. AND WROTE      408156. INTEGRALS IN      7 RECORDS. CPU TIME:     0.00 SEC, REAL TIME:     0.01 SEC

 Node minimum:       57921.  Node maximum:       58695. integrals

 OPERATOR DM      FOR CENTER  0  COORDINATES:    0.000000    0.000000    0.000000
1PROGRAM * RHF-SCF (OPEN SHELL)       Authors: W. Meyer, H.-J. Werner


 NUMBER OF ELECTRONS:      12+   10-    SPACE SYMMETRY=1    SPIN SYMMETRY: Triplet 
 CONVERGENCE THRESHOLDS:    1.00E-07 (Density)    1.00E-08 (Energy)
 MAX. NUMBER OF ITERATIONS:     1000
 INTERPOLATION TYPE:            DIIS
 INTERPOLATION STEPS:              2 (START)      1 (STEP)
 LEVEL SHIFTS:                 -0.60 (CLOSED) -0.30 (OPEN) 

 Number of closed-shell orbitals:   10 (  10 )
 Number of open-shell orbitals:      2 (   2 )


 Molecular orbitals read from record     2100.2  Type=RHF/CANONICAL (state 1.1)

 Molecular orbital dump at record        2100.1

 ITERATION    DDIFF          GRAD             ENERGY        2-EL.EN.            DIPOLE MOMENTS         DIIS   ORB.
    1      0.000D+00      0.000D+00      -183.64660542    234.515282   -0.19364   -0.01896   -0.00000    0    start
    2      0.000D+00      0.293D-03      -183.64664514    234.484425   -0.19537   -0.01898   -0.00000    1    diag,B
    3      0.460D-03      0.116D-03      -183.64665561    234.478097   -0.19629   -0.01897   -0.00000    2    diag,B
    4      0.264D-03      0.408D-04      -183.64665783    234.478958   -0.19736   -0.01890   -0.00000    3    diag,B
    5      0.103D-03      0.204D-04      -183.64665859    234.478532   -0.19799   -0.01886   -0.00000    4    diag,B
    6      0.582D-04      0.101D-04      -183.64665878    234.478488   -0.19846   -0.01879   -0.00000    5    diag,B
    7      0.348D-04      0.408D-05      -183.64665881    234.478424   -0.19847   -0.01878   -0.00000    6    diag,B
    8      0.158D-04      0.172D-05      -183.64665882    234.478472   -0.19846   -0.01877   -0.00000    7    orth
    9      0.702D-05      0.946D-06      -183.64665882    234.478496   -0.19843   -0.01877   -0.00000    8    diag,B
   10      0.354D-05      0.511D-06      -183.64665882    234.478512   -0.19841   -0.01877   -0.00000    9    diag,B
   11      0.250D-05      0.246D-06      -183.64665882    234.478517   -0.19841   -0.01877    0.00000    9    diag,B
   12      0.123D-05      0.112D-06      -183.64665882    234.478511   -0.19842   -0.01877    0.00000    9    diag,B
   13      0.553D-06      0.400D-07      -183.64665882    234.478508   -0.19842   -0.01877   -0.00000    9    diag,B
   14      0.183D-06      0.108D-07      -183.64665882    234.478507   -0.19842   -0.01877   -0.00000    9    diag,B
   15      0.333D-07      0.394D-08      -183.64665882    234.478507   -0.19842   -0.01877   -0.00000    0    orth

 Final alpha occupancy:  12
 Final beta  occupancy:  10

 !RHF STATE 1.1 Energy               -183.646658818503
 Nuclear energy                        50.76162718
 One-electron energy                 -351.64753953
 Two-electron energy                  117.23925353
 Virial quotient                       -0.99978643
 !RHF STATE 1.1 Dipole moment          -0.19841813    -0.01877017    -0.00000000
 Dipole moment /Debye                  -0.50429556    -0.04770590    -0.00000000

 Orbital energies:

         1.1          2.1          3.1          4.1          5.1          6.1          7.1          8.1          9.1         10.1
    -20.630889   -15.706941   -15.703538    -1.457196    -1.253987    -0.808530    -0.654970    -0.619152    -0.608700    -0.525561

        11.1         12.1         13.1         14.1
     -0.668436    -0.561670     0.144407     0.148699

 HOMO     12.1    -0.561670 =     -15.2838eV
 LUMO     13.1     0.144407 =       3.9295eV
 LUMO-HOMO         0.706078 =      19.2134eV


 **********************************************************************************************************************************
 DATASETS  * FILE   NREC   LENGTH (MB)   RECORD NAMES
              1      19       19.35       500      610      700      900      950      970     1000      129      960     1100   
                                          VAR    BASINP    GEOM    SYMINP    ZMAT    AOBASIS   BASIS     P2S    ABASIS      S 
                                         1400     1410     1200     1210     1080     1600     1650     1700     2100   
                                           T        V       H0       H01     AOSYM     SMH    MOLCAS    OPER      RHF  

              2       5        0.49       700     1000      520     2100     5500   
                                         GEOM     BASIS   MCVARS     RHF     HINFO   

 PROGRAMS   *        TOTAL       RHF      RMP2       RHF       INT
 CPU TIMES  *         1.27      0.23      0.04      0.03      0.29
 REAL TIME  *         1.91 SEC
 DISK USED  *       171.47 MB      
 SF USED    *         3.56 MB      
 GA USED    *         0.00 MB       (max)       0.00 MB       (current)
 **********************************************************************************************************************************


1PROGRAM * RMP2 (Restricted open-shell)     Authors: H.-J. Werner, 2001


 Convergence thresholds:  THRVAR = 1.00D-12  THRDEN = 1.00D-08

 Number of core orbitals:           3 (   3 )
 Number of closed-shell orbitals:   7 (   7 )
 Number of active  orbitals:        2 (   2 )
 Number of external orbitals:      30 (  30 )

 Reading UHF information from record   2100.1

                               TOTAL       A-A         B-B         A-B
 Pair energies:            -0.44051673 -0.06893025 -0.05030001 -0.32128648
 Singles energies:         -0.00471287 -0.00232005 -0.00239282

 Reference energy                    -183.646658818503
 Correlation energy                    -0.445229596461
 !RMP2 STATE 1.1 Energy              -184.091888414964


 **********************************************************************************************************************************
 DATASETS  * FILE   NREC   LENGTH (MB)   RECORD NAMES
              1      19       19.35       500      610      700      900      950      970     1000      129      960     1100   
                                          VAR    BASINP    GEOM    SYMINP    ZMAT    AOBASIS   BASIS     P2S    ABASIS      S 
                                         1400     1410     1200     1210     1080     1600     1650     1700     2100   
                                           T        V       H0       H01     AOSYM     SMH    MOLCAS    OPER      RHF  

              2       5        0.49       700     1000      520     2100     5500   
                                         GEOM     BASIS   MCVARS     RHF     HINFO   

 PROGRAMS   *        TOTAL      RMP2      RMP2       RHF       INT
 CPU TIMES  *         1.31      0.04      0.04      0.03      0.29
 REAL TIME  *         1.96 SEC
 DISK USED  *       171.47 MB      
 SF USED    *         3.56 MB      
 GA USED    *         0.00 MB       (max)       0.00 MB       (current)
 **********************************************************************************************************************************
 Starting task   4.  CPU=     0.96 sec, Elapsed=     0.97 sec
 Incrementing variable GY1              by -0.005292 ANG   to   -0.158309 ANG
 Incrementing variable GX1              by -0.005292 ANG   to   -0.270796 ANG


 Recomputing integrals since geometry changed

1PROGRAM * SEWARD (Integral evaluation for generally contracted gaussian basis sets)     Author: Roland Lindh, 1990

 Geometry written to block  1 of record 700


 Point group  C1  



 ATOMIC COORDINATES

 NR  ATOM    CHARGE       X              Y              Z

   1  N       7.00   -0.511730236   -0.299161233    0.000000000
   2  N       7.00   -2.591087609    0.175141897    0.000000000
   3  O       8.00    2.707672892    0.099820643    0.000000000

 Bond lengths in Bohr (Angstrom)

 1-2  2.132765937  1-3  3.244031911
     ( 1.128611130)     ( 1.716667759)

 Bond angles

  2-1-3  160.08595898

 NUCLEAR CHARGE:                   22
 NUMBER OF PRIMITIVE AOS:          81
 NUMBER OF SYMMETRY AOS:           78
 NUMBER OF CONTRACTIONS:           42   (  42A   )
 NUMBER OF CORE ORBITALS:           3   (   3A   )
 NUMBER OF VALENCE ORBITALS:       12   (  12A   )


 NUCLEAR REPULSION ENERGY   50.80477124

 EXTRA SYMMETRY OF AOS IN SYMMETRY 1:   1 1 1 1 1 2 1 1 2 1   1 2 1 2 1 1 1 1 1 2   1 1 2 1 1 2 1 2 1 1   1 1 1 2 1 1 2 1 1 2
                                        1 2

 Eigenvalues of metric

         1 0.363E-02 0.214E-01 0.384E-01 0.667E-01 0.888E-01 0.117E+00 0.118E+00 0.133E+00


 Contracted 2-electron integrals neglected if value below      1.0D-11
 AO integral compression algorithm  1   Integral accuracy      1.0D-11

     1.835 MB (compressed) written to integral file ( 60.4%)

     Node minimum: 0.262 MB, node maximum: 0.262 MB


 NUMBER OF SORTED TWO-ELECTRON INTEGRALS:      58695.     BUFFER LENGTH:  32768
 NUMBER OF SEGMENTS:   1  SEGMENT LENGTH:      58695      RECORD LENGTH: 524288

 Memory used in sort:       0.62 MW

 SORT1 READ      544483. AND WROTE       30568. INTEGRALS IN      1 RECORDS. CPU TIME:     0.01 SEC, REAL TIME:     0.00 SEC
 SORT2 READ      205883. AND WROTE      408156. INTEGRALS IN      7 RECORDS. CPU TIME:     0.00 SEC, REAL TIME:     0.01 SEC

 Node minimum:       57921.  Node maximum:       58695. integrals

 OPERATOR DM      FOR CENTER  0  COORDINATES:    0.000000    0.000000    0.000000
1PROGRAM * RHF-SCF (OPEN SHELL)       Authors: W. Meyer, H.-J. Werner


 NUMBER OF ELECTRONS:      12+   10-    SPACE SYMMETRY=1    SPIN SYMMETRY: Triplet 
 CONVERGENCE THRESHOLDS:    1.00E-07 (Density)    1.00E-08 (Energy)
 MAX. NUMBER OF ITERATIONS:     1000
 INTERPOLATION TYPE:            DIIS
 INTERPOLATION STEPS:              2 (START)      1 (STEP)
 LEVEL SHIFTS:                 -0.60 (CLOSED) -0.30 (OPEN) 

 Number of closed-shell orbitals:   10 (  10 )
 Number of open-shell orbitals:      2 (   2 )


 Molecular orbitals read from record     2100.2  Type=RHF/CANONICAL (state 1.1)

 Molecular orbital dump at record        2100.1

 ITERATION    DDIFF          GRAD             ENERGY        2-EL.EN.            DIPOLE MOMENTS         DIIS   ORB.
    1      0.000D+00      0.000D+00      -183.65261279    234.524196   -0.19606   -0.01964   -0.00000    0    start
    2      0.000D+00      0.295D-03      -183.65265253    234.555092   -0.19433   -0.01961   -0.00000    1    diag,B
    3      0.457D-03      0.117D-03      -183.65266295    234.561382   -0.19339   -0.01962   -0.00000    2    diag,B
    4      0.262D-03      0.410D-04      -183.65266516    234.560509   -0.19235   -0.01968    0.00000    3    diag,B
    5      0.103D-03      0.205D-04      -183.65266592    234.560904   -0.19171   -0.01972    0.00000    4    diag,B
    6      0.594D-04      0.985D-05      -183.65266611    234.560943   -0.19125   -0.01979   -0.00000    5    diag,B
    7      0.342D-04      0.383D-05      -183.65266613    234.560998   -0.19125   -0.01980   -0.00000    6    diag,B
    8      0.148D-04      0.160D-05      -183.65266613    234.560953   -0.19126   -0.01981    0.00000    7    orth
    9      0.650D-05      0.873D-06      -183.65266614    234.560932   -0.19129   -0.01981   -0.00000    8    diag,B
   10      0.320D-05      0.467D-06      -183.65266614    234.560917   -0.19131   -0.01981   -0.00000    9    diag,B
   11      0.224D-05      0.223D-06      -183.65266614    234.560913   -0.19130   -0.01981   -0.00000    9    diag,B
   12      0.110D-05      0.983D-07      -183.65266614    234.560918   -0.19130   -0.01981   -0.00000    9    diag,B
   13      0.476D-06      0.350D-07      -183.65266614    234.560921   -0.19130   -0.01981   -0.00000    9    diag,B
   14      0.155D-06      0.956D-08      -183.65266614    234.560921   -0.19130   -0.01981   -0.00000    9    diag,B
   15      0.286D-07      0.347D-08      -183.65266614    234.560921   -0.19130   -0.01981   -0.00000    0    orth

 Final alpha occupancy:  12
 Final beta  occupancy:  10

 !RHF STATE 1.1 Energy               -183.652666136471
 Nuclear energy                        50.80477124
 One-electron energy                 -351.73789796
 Two-electron energy                  117.28046058
 Virial quotient                       -0.99963290
 !RHF STATE 1.1 Dipole moment          -0.19130081    -0.01980966    -0.00000000
 Dipole moment /Debye                  -0.48620632    -0.05034783    -0.00000000

 Orbital energies:

         1.1          2.1          3.1          4.1          5.1          6.1          7.1          8.1          9.1         10.1
    -20.631554   -15.704145   -15.700605    -1.462328    -1.252744    -0.805679    -0.654573    -0.620832    -0.611371    -0.526869

        11.1         12.1         13.1         14.1
     -0.668944    -0.566632     0.148835     0.153641

 HOMO     12.1    -0.566632 =     -15.4188eV
 LUMO     13.1     0.148835 =       4.0500eV
 LUMO-HOMO         0.715467 =      19.4689eV


 **********************************************************************************************************************************
 DATASETS  * FILE   NREC   LENGTH (MB)   RECORD NAMES
              1      19       19.35       500      610      700      900      950      970     1000      129      960     1100   
                                          VAR    BASINP    GEOM    SYMINP    ZMAT    AOBASIS   BASIS     P2S    ABASIS      S 
                                         1400     1410     1200     1210     1080     1600     1650     1700     2100   
                                           T        V       H0       H01     AOSYM     SMH    MOLCAS    OPER      RHF  

              2       5        0.49       700     1000      520     2100     5500   
                                         GEOM     BASIS   MCVARS     RHF     HINFO   

 PROGRAMS   *        TOTAL       RHF      RMP2       RHF       INT
 CPU TIMES  *         1.55      0.24      0.04      0.03      0.29
 REAL TIME  *         2.24 SEC
 DISK USED  *       171.47 MB      
 SF USED    *         3.56 MB      
 GA USED    *         0.00 MB       (max)       0.00 MB       (current)
 **********************************************************************************************************************************


1PROGRAM * RMP2 (Restricted open-shell)     Authors: H.-J. Werner, 2001


 Convergence thresholds:  THRVAR = 1.00D-12  THRDEN = 1.00D-08

 Number of core orbitals:           3 (   3 )
 Number of closed-shell orbitals:   7 (   7 )
 Number of active  orbitals:        2 (   2 )
 Number of external orbitals:      30 (  30 )

 Reading UHF information from record   2100.1

                               TOTAL       A-A         B-B         A-B
 Pair energies:            -0.43716573 -0.06839179 -0.04974418 -0.31902975
 Singles energies:         -0.00466005 -0.00229337 -0.00236667

 Reference energy                    -183.652666136471
 Correlation energy                    -0.441825771963
 !RMP2 STATE 1.1 Energy              -184.094491908433


 **********************************************************************************************************************************
 DATASETS  * FILE   NREC   LENGTH (MB)   RECORD NAMES
              1      19       19.35       500      610      700      900      950      970     1000      129      960     1100   
                                          VAR    BASINP    GEOM    SYMINP    ZMAT    AOBASIS   BASIS     P2S    ABASIS      S 
                                         1400     1410     1200     1210     1080     1600     1650     1700     2100   
                                           T        V       H0       H01     AOSYM     SMH    MOLCAS    OPER      RHF  

              2       5        0.49       700     1000      520     2100     5500   
                                         GEOM     BASIS   MCVARS     RHF     HINFO   

 PROGRAMS   *        TOTAL      RMP2      RMP2       RHF       INT
 CPU TIMES  *         1.59      0.04      0.04      0.03      0.29
 REAL TIME  *         2.28 SEC
 DISK USED  *       171.47 MB      
 SF USED    *         3.56 MB      
 GA USED    *         0.00 MB       (max)       0.00 MB       (current)
 **********************************************************************************************************************************
 Starting task   5.  CPU=     1.28 sec, Elapsed=     1.29 sec
 Incrementing variable GY1              by  0.005292 ANG   to   -0.147726 ANG


 Recomputing integrals since geometry changed

1PROGRAM * SEWARD (Integral evaluation for generally contracted gaussian basis sets)     Author: Roland Lindh, 1990

 Geometry written to block  1 of record 700


 Point group  C1  



 ATOMIC COORDINATES

 NR  ATOM    CHARGE       X              Y              Z

   1  N       7.00   -0.501730236   -0.279161233    0.000000000
   2  N       7.00   -2.591087609    0.175141897    0.000000000
   3  O       8.00    2.707672892    0.099820643    0.000000000

 Bond lengths in Bohr (Angstrom)

 1-2  2.138178095  1-3  3.231701673
     ( 1.131475121)     ( 1.710142878)

 Bond angles

  2-1-3  160.99816204

 NUCLEAR CHARGE:                   22
 NUMBER OF PRIMITIVE AOS:          81
 NUMBER OF SYMMETRY AOS:           78
 NUMBER OF CONTRACTIONS:           42   (  42A   )
 NUMBER OF CORE ORBITALS:           3   (   3A   )
 NUMBER OF VALENCE ORBITALS:       12   (  12A   )


 NUCLEAR REPULSION ENERGY   50.81248050

 EXTRA SYMMETRY OF AOS IN SYMMETRY 1:   1 1 1 1 1 2 1 1 2 1   1 2 1 2 1 1 1 1 1 2   1 1 2 1 1 2 1 2 1 1   1 1 1 2 1 1 2 1 1 2
                                        1 2

 Eigenvalues of metric

         1 0.361E-02 0.212E-01 0.385E-01 0.672E-01 0.890E-01 0.117E+00 0.118E+00 0.133E+00


 Contracted 2-electron integrals neglected if value below      1.0D-11
 AO integral compression algorithm  1   Integral accuracy      1.0D-11

     1.835 MB (compressed) written to integral file ( 60.4%)

     Node minimum: 0.262 MB, node maximum: 0.262 MB


 NUMBER OF SORTED TWO-ELECTRON INTEGRALS:      58695.     BUFFER LENGTH:  32768
 NUMBER OF SEGMENTS:   1  SEGMENT LENGTH:      58695      RECORD LENGTH: 524288

 Memory used in sort:       0.62 MW

 SORT1 READ      544483. AND WROTE       30568. INTEGRALS IN      1 RECORDS. CPU TIME:     0.00 SEC, REAL TIME:     0.01 SEC
 SORT2 READ      205882. AND WROTE      408156. INTEGRALS IN      7 RECORDS. CPU TIME:     0.00 SEC, REAL TIME:     0.00 SEC

 Node minimum:       57921.  Node maximum:       58695. integrals

 OPERATOR DM      FOR CENTER  0  COORDINATES:    0.000000    0.000000    0.000000
1PROGRAM * RHF-SCF (OPEN SHELL)       Authors: W. Meyer, H.-J. Werner


 NUMBER OF ELECTRONS:      12+   10-    SPACE SYMMETRY=1    SPIN SYMMETRY: Triplet 
 CONVERGENCE THRESHOLDS:    1.00E-07 (Density)    1.00E-08 (Energy)
 MAX. NUMBER OF ITERATIONS:     1000
 INTERPOLATION TYPE:            DIIS
 INTERPOLATION STEPS:              2 (START)      1 (STEP)
 LEVEL SHIFTS:                 -0.60 (CLOSED) -0.30 (OPEN) 

 Number of closed-shell orbitals:   10 (  10 )
 Number of open-shell orbitals:      2 (   2 )


 Molecular orbitals read from record     2100.2  Type=RHF/CANONICAL (state 1.1)

 Molecular orbital dump at record        2100.1

 ITERATION    DDIFF          GRAD             ENERGY        2-EL.EN.            DIPOLE MOMENTS         DIIS   ORB.
    1      0.000D+00      0.000D+00      -183.64976162    234.568853   -0.19535   -0.01909   -0.00000    0    start
    2      0.000D+00      0.185D-03      -183.64977677    234.576323   -0.19571   -0.01914   -0.00000    1    diag,B
    3      0.240D-03      0.803D-04      -183.64978229    234.577872   -0.19636   -0.01913   -0.00000    2    diag,B
    4      0.170D-03      0.295D-04      -183.64978363    234.577459   -0.19672   -0.01906   -0.00000    3    diag,B
    5      0.763D-04      0.154D-04      -183.64978411    234.577838   -0.19700   -0.01898   -0.00000    4    diag,B
    6      0.559D-04      0.573D-05      -183.64978417    234.577839   -0.19705   -0.01895   -0.00000    5    diag,B
    7      0.258D-04      0.126D-05      -183.64978418    234.577869   -0.19708   -0.01894   -0.00000    6    diag,B
    8      0.573D-05      0.527D-06      -183.64978418    234.577862   -0.19707   -0.01894   -0.00000    7    orth
    9      0.222D-05      0.308D-06      -183.64978418    234.577865   -0.19707   -0.01893   -0.00000    8    diag,B
   10      0.888D-06      0.207D-06      -183.64978418    234.577864   -0.19707   -0.01893   -0.00000    9    diag,B
   11      0.114D-05      0.804D-07      -183.64978418    234.577863   -0.19707   -0.01893    0.00000    9    diag,B
   12      0.504D-06      0.215D-07      -183.64978418    234.577864   -0.19707   -0.01893   -0.00000    9    diag,B
   13      0.781D-07      0.991D-08      -183.64978418    234.577864   -0.19707   -0.01893   -0.00000    0    orth

 Final alpha occupancy:  12
 Final beta  occupancy:  10

 !RHF STATE 1.1 Energy               -183.649784176210
 Nuclear energy                        50.81248050
 One-electron energy                 -351.75119643
 Two-electron energy                  117.28893175
 Virial quotient                       -0.99966544
 !RHF STATE 1.1 Dipole moment          -0.19707100    -0.01893299    -0.00000000
 Dipole moment /Debye                  -0.50087171    -0.04811972    -0.00000000

 Orbital energies:

         1.1          2.1          3.1          4.1          5.1          6.1          7.1          8.1          9.1         10.1
    -20.630869   -15.705280   -15.701734    -1.460613    -1.253249    -0.806865    -0.654999    -0.620409    -0.610507    -0.526075

        11.1         12.1         13.1         14.1
     -0.668446    -0.563686     0.147145     0.151387

 HOMO     12.1    -0.563686 =     -15.3387eV
 LUMO     13.1     0.147145 =       4.0040eV
 LUMO-HOMO         0.710832 =      19.3427eV


 **********************************************************************************************************************************
 DATASETS  * FILE   NREC   LENGTH (MB)   RECORD NAMES
              1      19       19.35       500      610      700      900      950      970     1000      129      960     1100   
                                          VAR    BASINP    GEOM    SYMINP    ZMAT    AOBASIS   BASIS     P2S    ABASIS      S 
                                         1400     1410     1200     1210     1080     1600     1650     1700     2100   
                                           T        V       H0       H01     AOSYM     SMH    MOLCAS    OPER      RHF  

              2       5        0.49       700     1000      520     2100     5500   
                                         GEOM     BASIS   MCVARS     RHF     HINFO   

 PROGRAMS   *        TOTAL       RHF      RMP2       RHF       INT
 CPU TIMES  *         1.83      0.24      0.04      0.03      0.29
 REAL TIME  *         2.56 SEC
 DISK USED  *       171.47 MB      
 SF USED    *         3.56 MB      
 GA USED    *         0.00 MB       (max)       0.00 MB       (current)
 **********************************************************************************************************************************


1PROGRAM * RMP2 (Restricted open-shell)     Authors: H.-J. Werner, 2001


 Convergence thresholds:  THRVAR = 1.00D-12  THRDEN = 1.00D-08

 Number of core orbitals:           3 (   3 )
 Number of closed-shell orbitals:   7 (   7 )
 Number of active  orbitals:        2 (   2 )
 Number of external orbitals:      30 (  30 )

 Reading UHF information from record   2100.1

                               TOTAL       A-A         B-B         A-B
 Pair energies:            -0.43848351 -0.06860125 -0.04997119 -0.31991107
 Singles energies:         -0.00468046 -0.00230370 -0.00237676

 Reference energy                    -183.649784176210
 Correlation energy                    -0.443163969592
 !RMP2 STATE 1.1 Energy              -184.092948145802


 **********************************************************************************************************************************
 DATASETS  * FILE   NREC   LENGTH (MB)   RECORD NAMES
              1      19       19.35       500      610      700      900      950      970     1000      129      960     1100   
                                          VAR    BASINP    GEOM    SYMINP    ZMAT    AOBASIS   BASIS     P2S    ABASIS      S 
                                         1400     1410     1200     1210     1080     1600     1650     1700     2100   
                                           T        V       H0       H01     AOSYM     SMH    MOLCAS    OPER      RHF  

              2       5        0.49       700     1000      520     2100     5500   
                                         GEOM     BASIS   MCVARS     RHF     HINFO   

 PROGRAMS   *        TOTAL      RMP2      RMP2       RHF       INT
 CPU TIMES  *         1.87      0.04      0.04      0.03      0.29
 REAL TIME  *         2.60 SEC
 DISK USED  *       171.47 MB      
 SF USED    *         3.56 MB      
 GA USED    *         0.00 MB       (max)       0.00 MB       (current)
 **********************************************************************************************************************************
    5 tasks completed, CPU=1s Elapsed=1s
 Starting task   6.  CPU=     1.60 sec, Elapsed=     1.61 sec
 Incrementing variable GY1              by -0.005292 ANG   to   -0.158309 ANG


 Recomputing integrals since geometry changed

1PROGRAM * SEWARD (Integral evaluation for generally contracted gaussian basis sets)     Author: Roland Lindh, 1990

 Geometry written to block  1 of record 700


 Point group  C1  



 ATOMIC COORDINATES

 NR  ATOM    CHARGE       X              Y              Z

   1  N       7.00   -0.501730236   -0.299161233    0.000000000
   2  N       7.00   -2.591087609    0.175141897    0.000000000
   3  O       8.00    2.707672892    0.099820643    0.000000000

 Bond lengths in Bohr (Angstrom)

 1-2  2.142516672  1-3  3.234108065
     ( 1.133770997)     ( 1.711416286)

 Bond angles

  2-1-3  160.12364186

 NUCLEAR CHARGE:                   22
 NUMBER OF PRIMITIVE AOS:          81
 NUMBER OF SYMMETRY AOS:           78
 NUMBER OF CONTRACTIONS:           42   (  42A   )
 NUMBER OF CORE ORBITALS:           3   (   3A   )
 NUMBER OF VALENCE ORBITALS:       12   (  12A   )


 NUCLEAR REPULSION ENERGY   50.75318094

 EXTRA SYMMETRY OF AOS IN SYMMETRY 1:   1 1 1 1 1 2 1 1 2 1   1 2 1 2 1 1 1 1 1 2   1 1 2 1 1 2 1 2 1 1   1 1 1 2 1 1 2 1 1 2
                                        1 2

 Eigenvalues of metric

         1 0.368E-02 0.213E-01 0.385E-01 0.677E-01 0.894E-01 0.118E+00 0.118E+00 0.133E+00


 Contracted 2-electron integrals neglected if value below      1.0D-11
 AO integral compression algorithm  1   Integral accuracy      1.0D-11

     1.835 MB (compressed) written to integral file ( 60.4%)

     Node minimum: 0.262 MB, node maximum: 0.262 MB


 NUMBER OF SORTED TWO-ELECTRON INTEGRALS:      58695.     BUFFER LENGTH:  32768
 NUMBER OF SEGMENTS:   1  SEGMENT LENGTH:      58695      RECORD LENGTH: 524288

 Memory used in sort:       0.62 MW

 SORT1 READ      544483. AND WROTE       30568. INTEGRALS IN      1 RECORDS. CPU TIME:     0.01 SEC, REAL TIME:     0.01 SEC
 SORT2 READ      205882. AND WROTE      408156. INTEGRALS IN      7 RECORDS. CPU TIME:     0.00 SEC, REAL TIME:     0.00 SEC

 Node minimum:       57921.  Node maximum:       58695. integrals

 OPERATOR DM      FOR CENTER  0  COORDINATES:    0.000000    0.000000    0.000000
1PROGRAM * RHF-SCF (OPEN SHELL)       Authors: W. Meyer, H.-J. Werner


 NUMBER OF ELECTRONS:      12+   10-    SPACE SYMMETRY=1    SPIN SYMMETRY: Triplet 
 CONVERGENCE THRESHOLDS:    1.00E-07 (Density)    1.00E-08 (Energy)
 MAX. NUMBER OF ITERATIONS:     1000
 INTERPOLATION TYPE:            DIIS
 INTERPOLATION STEPS:              2 (START)      1 (STEP)
 LEVEL SHIFTS:                 -0.60 (CLOSED) -0.30 (OPEN) 

 Number of closed-shell orbitals:   10 (  10 )
 Number of open-shell orbitals:      2 (   2 )


 Molecular orbitals read from record     2100.2  Type=RHF/CANONICAL (state 1.1)

 Molecular orbital dump at record        2100.1

 ITERATION    DDIFF          GRAD             ENERGY        2-EL.EN.            DIPOLE MOMENTS         DIIS   ORB.
    1      0.000D+00      0.000D+00      -183.64962251    234.469642   -0.19437   -0.01951   -0.00000    0    start
    2      0.000D+00      0.184D-03      -183.64963762    234.462016   -0.19401   -0.01946   -0.00000    1    diag,B
    3      0.241D-03      0.802D-04      -183.64964313    234.460448   -0.19335   -0.01947   -0.00000    2    diag,B
    4      0.170D-03      0.294D-04      -183.64964447    234.460854   -0.19298   -0.01953    0.00000    3    diag,B
    5      0.761D-04      0.154D-04      -183.64964495    234.460469   -0.19269   -0.01961    0.00000    4    diag,B
    6      0.559D-04      0.579D-05      -183.64964501    234.460462   -0.19263   -0.01964    0.00000    5    diag,B
    7      0.262D-04      0.126D-05      -183.64964501    234.460433   -0.19261   -0.01965    0.00000    6    diag,B
    8      0.580D-05      0.536D-06      -183.64964501    234.460439   -0.19261   -0.01965   -0.00000    7    orth
    9      0.221D-05      0.317D-06      -183.64964501    234.460437   -0.19261   -0.01966   -0.00000    8    diag,B
   10      0.915D-06      0.214D-06      -183.64964501    234.460438   -0.19262   -0.01966   -0.00000    9    diag,B
   11      0.120D-05      0.825D-07      -183.64964501    234.460438   -0.19262   -0.01966   -0.00000    9    diag,B
   12      0.524D-06      0.213D-07      -183.64964501    234.460438   -0.19262   -0.01966   -0.00000    9    diag,B
   13      0.780D-07      0.966D-08      -183.64964501    234.460438   -0.19261   -0.01966   -0.00000    0    orth

 Final alpha occupancy:  12
 Final beta  occupancy:  10

 !RHF STATE 1.1 Energy               -183.649645009900
 Nuclear energy                        50.75318094
 One-electron energy                 -351.63304502
 Two-electron energy                  117.23021907
 Virial quotient                       -0.99975630
 !RHF STATE 1.1 Dipole moment          -0.19261488    -0.01965816    -0.00000000
 Dipole moment /Debye                  -0.48954613    -0.04996280    -0.00000000

 Orbital energies:

         1.1          2.1          3.1          4.1          5.1          6.1          7.1          8.1          9.1         10.1
    -20.631571   -15.705806   -15.702405    -1.458899    -1.253467    -0.807348    -0.654537    -0.619548    -0.609555    -0.526370

        11.1         12.1         13.1         14.1
     -0.668936    -0.564659     0.146096     0.150955

 HOMO     12.1    -0.564659 =     -15.3652eV
 LUMO     13.1     0.146096 =       3.9755eV
 LUMO-HOMO         0.710755 =      19.3406eV


 **********************************************************************************************************************************
 DATASETS  * FILE   NREC   LENGTH (MB)   RECORD NAMES
              1      19       19.35       500      610      700      900      950      970     1000      129      960     1100   
                                          VAR    BASINP    GEOM    SYMINP    ZMAT    AOBASIS   BASIS     P2S    ABASIS      S 
                                         1400     1410     1200     1210     1080     1600     1650     1700     2100   
                                           T        V       H0       H01     AOSYM     SMH    MOLCAS    OPER      RHF  

              2       5        0.49       700     1000      520     2100     5500   
                                         GEOM     BASIS   MCVARS     RHF     HINFO   

 PROGRAMS   *        TOTAL       RHF      RMP2       RHF       INT
 CPU TIMES  *         2.11      0.24      0.04      0.03      0.29
 REAL TIME  *         2.88 SEC
 DISK USED  *       171.47 MB      
 SF USED    *         3.56 MB      
 GA USED    *         0.00 MB       (max)       0.00 MB       (current)
 **********************************************************************************************************************************


1PROGRAM * RMP2 (Restricted open-shell)     Authors: H.-J. Werner, 2001


 Convergence thresholds:  THRVAR = 1.00D-12  THRDEN = 1.00D-08

 Number of core orbitals:           3 (   3 )
 Number of closed-shell orbitals:   7 (   7 )
 Number of active  orbitals:        2 (   2 )
 Number of external orbitals:      30 (  30 )

 Reading UHF information from record   2100.1

                               TOTAL       A-A         B-B         A-B
 Pair energies:            -0.43917875 -0.06871676 -0.05006972 -0.32039227
 Singles energies:         -0.00469214 -0.00230957 -0.00238258

 Reference energy                    -183.649645009900
 Correlation energy                    -0.443870893030
 !RMP2 STATE 1.1 Energy              -184.093515902930


 **********************************************************************************************************************************
 DATASETS  * FILE   NREC   LENGTH (MB)   RECORD NAMES
              1      19       19.35       500      610      700      900      950      970     1000      129      960     1100   
                                          VAR    BASINP    GEOM    SYMINP    ZMAT    AOBASIS   BASIS     P2S    ABASIS      S 
                                         1400     1410     1200     1210     1080     1600     1650     1700     2100   
                                           T        V       H0       H01     AOSYM     SMH    MOLCAS    OPER      RHF  

              2       5        0.49       700     1000      520     2100     5500   
                                         GEOM     BASIS   MCVARS     RHF     HINFO   

 PROGRAMS   *        TOTAL      RMP2      RMP2       RHF       INT
 CPU TIMES  *         2.15      0.04      0.04      0.03      0.29
 REAL TIME  *         2.93 SEC
 DISK USED  *       171.47 MB      
 SF USED    *         3.56 MB      
 GA USED    *         0.00 MB       (max)       0.00 MB       (current)
 **********************************************************************************************************************************
 Starting task   7.  CPU=     1.93 sec, Elapsed=     1.94 sec
 Incrementing variable GZ1              by  0.005292 ANG   to    0.005292 ANG


 Recomputing integrals since geometry changed

1PROGRAM * SEWARD (Integral evaluation for generally contracted gaussian basis sets)     Author: Roland Lindh, 1990

 Geometry written to block  1 of record 700


 Point group  C1  



 ATOMIC COORDINATES

 NR  ATOM    CHARGE       X              Y              Z

   1  N       7.00   -0.501730236   -0.289161233    0.010000000
   2  N       7.00   -2.591087609    0.175141897    0.000000000
   3  O       8.00    2.707672892    0.099820643    0.000000000

 Bond lengths in Bohr (Angstrom)

 1-2  2.140348483  1-3  3.232905093
     ( 1.132623641)     ( 1.710779700)

 Bond angles

  2-1-3  160.55553572

 NUCLEAR CHARGE:                   22
 NUMBER OF PRIMITIVE AOS:          81
 NUMBER OF SYMMETRY AOS:           78
 NUMBER OF CONTRACTIONS:           42   (  42A   )
 NUMBER OF CORE ORBITALS:           3   (   3A   )
 NUMBER OF VALENCE ORBITALS:       12   (  12A   )


 NUCLEAR REPULSION ENERGY   50.78279185

 Eigenvalues of metric

         1 0.365E-02 0.213E-01 0.385E-01 0.675E-01 0.892E-01 0.118E+00 0.118E+00 0.133E+00


 Contracted 2-electron integrals neglected if value below      1.0D-11
 AO integral compression algorithm  1   Integral accuracy      1.0D-11

     3.146 MB (compressed) written to integral file ( 62.9%)

     Node minimum: 0.262 MB, node maximum: 0.524 MB


 NUMBER OF SORTED TWO-ELECTRON INTEGRALS:      58695.     BUFFER LENGTH:  32768
 NUMBER OF SEGMENTS:   1  SEGMENT LENGTH:      58695      RECORD LENGTH: 524288

 Memory used in sort:       0.62 MW

 SORT1 READ      544483. AND WROTE       51735. INTEGRALS IN      1 RECORDS. CPU TIME:     0.01 SEC, REAL TIME:     0.01 SEC
 SORT2 READ      358750. AND WROTE      408156. INTEGRALS IN     14 RECORDS. CPU TIME:     0.00 SEC, REAL TIME:     0.01 SEC

 Node minimum:       57921.  Node maximum:       58695. integrals

 OPERATOR DM      FOR CENTER  0  COORDINATES:    0.000000    0.000000    0.000000
1PROGRAM * RHF-SCF (OPEN SHELL)       Authors: W. Meyer, H.-J. Werner


 NUMBER OF ELECTRONS:      12+   10-    SPACE SYMMETRY=1    SPIN SYMMETRY: Triplet 
 CONVERGENCE THRESHOLDS:    1.00E-07 (Density)    1.00E-08 (Energy)
 MAX. NUMBER OF ITERATIONS:     1000
 INTERPOLATION TYPE:            DIIS
 INTERPOLATION STEPS:              2 (START)      1 (STEP)
 LEVEL SHIFTS:                 -0.60 (CLOSED) -0.30 (OPEN) 

 Number of closed-shell orbitals:   10 (  10 )
 Number of open-shell orbitals:      2 (   2 )


 Molecular orbitals read from record     2100.2  Type=RHF/CANONICAL (state 1.1)

 Molecular orbital dump at record        2100.1

 ITERATION    DDIFF          GRAD             ENERGY        2-EL.EN.            DIPOLE MOMENTS         DIIS   ORB.
    1      0.000D+00      0.000D+00      -183.64969500    234.519201   -0.19486   -0.01930    0.00029    0    start
    2      0.000D+00      0.184D-03      -183.64971005    234.519104   -0.19486   -0.01930    0.00043    1    diag,B
    3      0.230D-03      0.814D-04      -183.64971583    234.519091   -0.19485   -0.01930    0.00047    2    diag,B
    4      0.171D-03      0.292D-04      -183.64971734    234.519087   -0.19484   -0.01930    0.00045    3    diag,B
    5      0.766D-04      0.158D-04      -183.64971808    234.519080   -0.19484   -0.01930    0.00042    4    diag,B
    6      0.582D-04      0.700D-05      -183.64971830    234.519077   -0.19484   -0.01930    0.00039    5    diag,B
    7      0.285D-04      0.451D-05      -183.64971845    234.519079   -0.19484   -0.01930    0.00035    6    diag,B
    8      0.185D-04      0.350D-05      -183.64971865    234.519063   -0.19482   -0.01930    0.00025    7    orth
    9      0.382D-04      0.123D-05      -183.64971867    234.519081   -0.19484   -0.01930    0.00022    8    diag,B
   10      0.124D-04      0.436D-06      -183.64971867    234.519072   -0.19483   -0.01930    0.00021    9    diag,B
   11      0.307D-05      0.134D-06      -183.64971867    234.519073   -0.19483   -0.01930    0.00021    9    diag,B
   12      0.401D-06      0.799D-07      -183.64971867    234.519073   -0.19483   -0.01930    0.00021    9    diag,B
   13      0.271D-06      0.527D-07      -183.64971867    234.519073   -0.19483   -0.01930    0.00021    9    diag,B
   14      0.140D-06      0.465D-07      -183.64971867    234.519073   -0.19483   -0.01930    0.00021    9    diag,B
   15      0.148D-06      0.444D-07      -183.64971867    234.519073   -0.19483   -0.01930    0.00021    9    diag,B
   16      0.192D-06      0.436D-07      -183.64971867    234.519073   -0.19483   -0.01930    0.00021    9    diag,B
   17      0.105D-06      0.436D-07      -183.64971867    234.519073   -0.19483   -0.01930    0.00021    9    diag,B
   18      0.860D-07      0.435D-07      -183.64971867    234.519073   -0.19483   -0.01930    0.00021    0    orth

 Final alpha occupancy:  12
 Final beta  occupancy:  10

 !RHF STATE 1.1 Energy               -183.649718669229
 Nuclear energy                        50.78279185
 One-electron energy                 -351.69204707
 Two-electron energy                  117.25953656
 Virial quotient                       -0.99971104
 !RHF STATE 1.1 Dipole moment          -0.19482967    -0.01929903     0.00021271
 Dipole moment /Debye                  -0.49517519    -0.04905003     0.00054061

 Orbital energies:

         1.1          2.1          3.1          4.1          5.1          6.1          7.1          8.1          9.1         10.1
    -20.631222   -15.705542   -15.702070    -1.459755    -1.253359    -0.807106    -0.654768    -0.619978    -0.610029    -0.526224

        11.1         12.1         13.1         14.1
     -0.668692    -0.564174     0.146617     0.151175

 HOMO     12.1    -0.564174 =     -15.3520eV
 LUMO     13.1     0.146617 =       3.9897eV
 LUMO-HOMO         0.710792 =      19.3416eV


 **********************************************************************************************************************************
 DATASETS  * FILE   NREC   LENGTH (MB)   RECORD NAMES
              1      19       19.35       500      610      700      900      950      970     1000      129      960     1100   
                                          VAR    BASINP    GEOM    SYMINP    ZMAT    AOBASIS   BASIS     P2S    ABASIS      S 
                                         1400     1410     1200     1210     1080     1600     1650     1700     2100   
                                           T        V       H0       H01     AOSYM     SMH    MOLCAS    OPER      RHF  

              2       5        0.49       700     1000      520     2100     5500   
                                         GEOM     BASIS   MCVARS     RHF     HINFO   

 PROGRAMS   *        TOTAL       RHF      RMP2       RHF       INT
 CPU TIMES  *         2.39      0.24      0.04      0.03      0.29
 REAL TIME  *         3.21 SEC
 DISK USED  *       172.04 MB      
 SF USED    *         3.56 MB      
 GA USED    *         0.00 MB       (max)       0.00 MB       (current)
 **********************************************************************************************************************************


1PROGRAM * RMP2 (Restricted open-shell)     Authors: H.-J. Werner, 2001


 Convergence thresholds:  THRVAR = 1.00D-12  THRDEN = 1.00D-08

 Number of core orbitals:           3 (   3 )
 Number of closed-shell orbitals:   7 (   7 )
 Number of active  orbitals:        2 (   2 )
 Number of external orbitals:      30 (  30 )

 Reading UHF information from record   2100.1

                               TOTAL       A-A         B-B         A-B
 Pair energies:            -0.43883109 -0.06865901 -0.05002042 -0.32015166
 Singles energies:         -0.00468635 -0.00230666 -0.00237969

 Reference energy                    -183.649718669229
 Correlation energy                    -0.443517437948
 !RMP2 STATE 1.1 Energy              -184.093236107176


 **********************************************************************************************************************************
 DATASETS  * FILE   NREC   LENGTH (MB)   RECORD NAMES
              1      19       19.35       500      610      700      900      950      970     1000      129      960     1100   
                                          VAR    BASINP    GEOM    SYMINP    ZMAT    AOBASIS   BASIS     P2S    ABASIS      S 
                                         1400     1410     1200     1210     1080     1600     1650     1700     2100   
[...]
 **********************************************************************************************************************************


1PROGRAM * RMP2 (Restricted open-shell)     Authors: H.-J. Werner, 2001


 Convergence thresholds:  THRVAR = 1.00D-12  THRDEN = 1.00D-08

 Number of core orbitals:           3 (   3 )
 Number of closed-shell orbitals:   7 (   7 )
 Number of active  orbitals:        2 (   2 )
 Number of external orbitals:      30 (  30 )

 Reading UHF information from record   2100.1

                               TOTAL       A-A         B-B         A-B
 Pair energies:            -0.43882698 -0.06865834 -0.05001980 -0.32014884
 Singles energies:         -0.00468627 -0.00230662 -0.00237965

 Reference energy                    -183.649721444777
 Correlation energy                    -0.443513252017
 !RMP2 STATE 1.1 Energy              -184.093234696794


 **********************************************************************************************************************************
 DATASETS  * FILE   NREC   LENGTH (MB)   RECORD NAMES
              1      19       19.35       500      610      700      900      950      970     1000      129      960     1100   
                                          VAR    BASINP    GEOM    SYMINP    ZMAT    AOBASIS   BASIS     P2S    ABASIS      S 
                                         1400     1410     1200     1210     1080     1600     1650     1700     2100   
                                           T        V       H0       H01     AOSYM     SMH    MOLCAS    OPER      RHF  

              2       5        0.49       700     1000      520     2100     5500   
                                         GEOM     BASIS   MCVARS     RHF     HINFO   

 PROGRAMS   *        TOTAL      RMP2      RMP2       RHF       INT
 CPU TIMES  *        14.20      0.04      0.04      0.03      0.29
 REAL TIME  *        16.81 SEC
 DISK USED  *       172.04 MB      
 SF USED    *         3.56 MB      
 GA USED    *         0.00 MB       (max)       0.00 MB       (current)
 **********************************************************************************************************************************

 Numerical RMP2 hessian completed. CPU-time:    15.83 sec, Elapsed:    15.82 sec

 RMP2 hessian saved to record  5300.2

 FREQUENCIES * CALCULATION OF HARMONIC VIBRATIONAL SPECTRA FOR RMP2


 Permanent Dipole Moment [debye]
   1-  3    0.000000    0.000000    0.000000

 Dipole Moment Norm    0.0000000 [debye]

 Dipole Moment Derivatives [debye/ang]
                   1             2             3             4             5             6             7             8
         1     0.0000000     0.0000000     0.0000000     0.0000000     0.0000000     0.0000000     0.0000000     0.0000000
         2     0.0000000     0.0000000     0.0000000     0.0000000     0.0000000     0.0000000     0.0000000     0.0000000
         3     0.0000000     0.0000000     0.0000000     0.0000000     0.0000000     0.0000000     0.0000000     0.0000000
                   9
         1     0.0000000
         2     0.0000000
         3     0.0000000

 Force Constants (Second Derivatives of the Energy) in [a.u.]
                             GX1         GY1         GZ1         GX2         GY2     
           GX1           1.2045590
           GY1          -0.1836528   0.0153153
           GZ1           0.0000000   0.0000000  -0.0663409
           GX2          -1.1119266   0.2598836   0.0000000   1.1428775
           GY2           0.2209668  -0.0456893   0.0000000  -0.2570384   0.0465762
           GZ2           0.0000000   0.0000000   0.0209056   0.0000000   0.0000000
           GX3          -0.0926324  -0.0760179   0.0000000  -0.0309509   0.0363288
           GY3          -0.0370577   0.0303739   0.0000000  -0.0025886  -0.0008869
           GZ3           0.0000000   0.0000000   0.0454353   0.0000000   0.0000000
                             GZ2         GX3         GY3         GZ3     
           GZ2          -0.0136035
           GX3           0.0000000   0.1235833
           GY3           0.0000000   0.0400052  -0.0294870
           GZ3          -0.0073021   0.0000000   0.0000000  -0.0381332


 Atomic Masses
   1-  3   14.006700   14.006700   15.999400

 Mass weighted Second Derivative Matrix
                             GX1         GY1         GZ1         GX2         GY2     
           GX1           0.0859988
           GY1          -0.0131118   0.0010934
           GZ1           0.0000000   0.0000000  -0.0047364
           GX2          -0.0793853   0.0185542   0.0000000   0.0815951
           GY2           0.0157758  -0.0032620   0.0000000  -0.0183511   0.0033253
           GZ2           0.0000000   0.0000000   0.0014925   0.0000000   0.0000000
           GX3          -0.0061879  -0.0050780   0.0000000  -0.0020675   0.0024268
           GY3          -0.0024755   0.0020290   0.0000000  -0.0001729  -0.0000592
           GZ3           0.0000000   0.0000000   0.0030351   0.0000000   0.0000000
                             GZ2         GX3         GY3         GZ3     
           GZ2          -0.0009712
           GX3           0.0000000   0.0077242
           GY3           0.0000000   0.0025004  -0.0018430
           GZ3          -0.0004878   0.0000000   0.0000000  -0.0023834


 Mass Weighted 2nd Derivative Matrix Eigenvalues
   1-  9   -0.007182   -0.006722   -0.001000   -0.000909   -0.000019   -0.000000    0.000019    0.015780    0.169836

 Mass Weighted 2nd Derivative Matrix Eigenvectors
                   1             2             3             4             5             6             7             8
         1    -0.0000000    -0.0753912    -0.0397526    -0.0000000     0.3989466     0.0000000     0.3989970    -0.4300768
         2     0.0000000     0.7330196    -0.1283034     0.0000000    -0.3990218     0.0000000     0.3988513    -0.3322234
         3     0.8100689    -0.0000000     0.0000000    -0.1598338    -0.0000000     0.5641290    -0.0000000     0.0000000
         4    -0.0000000    -0.2540260     0.1571121     0.0000000     0.3988381     0.0000000     0.3988535    -0.3474360
         5    -0.0000000    -0.1852328     0.7671457     0.0000000    -0.3994918     0.0000000     0.3982088     0.1953351
         6    -0.2367847     0.0000000    -0.0000000     0.7910067    -0.0000000     0.5641290    -0.0000000    -0.0000000
         7     0.0000000     0.3088545    -0.1077583    -0.0000000     0.4263054     0.0000000     0.4263205     0.7275797
         8    -0.0000000    -0.5126079    -0.5976197    -0.0000000    -0.4257011     0.0000000     0.4269842     0.1281474
         9    -0.5363967     0.0000000     0.0000000    -0.5905604    -0.0000000     0.6029237    -0.0000000    -0.0000000
                   9
         1     0.6995805
         2    -0.1324663
         3     0.0000000
         4    -0.6869635
         5     0.1444179
         6    -0.0000000
         7    -0.0118032
         8    -0.0111828
         9    -0.0000000

 Imaginary Vibration  Wavenumber
        Nr             [1/cm] 
        1              435.65
        2              421.46
        3              162.53
        4              154.95
        5               22.31
        6                0.06

   Low Vibration      Wavenumber
        Nr             [1/cm] 
        1               22.31

     Vibration        Wavenumber
        Nr             [1/cm] 
        1              645.73
        2             2118.44

 FREQUENCIES * CALCULATION OF NORMAL MODES FOR RMP2


 Atomic Coordinates

  Nr  Atom  Charge       X              Y              Z

   1   N     7.00   -0.501730236   -0.289161233    0.000000000
   2   N     7.00   -2.591087609    0.175141897    0.000000000
   3   O     8.00    2.707672892    0.099820643    0.000000000

 Frequencies dumped to record   5400.2

 Gradient norm at reference geometry: 0.15119D+00

 ?WARNING: GRADIENT NORM NOT ZERO!
 
 Molecule is not in standard orientation!
 Symmetry information for normal modes not available!

 Normal Modes

                              1 A         2 A  
 Wavenumbers [cm-1]          645.73     2118.44
 Intensities [km/mol]          0.00        0.00
 Intensities [relative]        0.00        0.00
           GX1             -0.11492     0.18693
           GY1             -0.08877    -0.03539
           GZ1              0.00000     0.00000
           GX2             -0.09283    -0.18355
           GY2              0.05219     0.03859
           GZ2             -0.00000    -0.00000
           GX3              0.18190    -0.00295
           GY3              0.03204    -0.00280
           GZ3             -0.00000    -0.00000


 Normal Modes of imaginary frequencies

                                  1           2           3           4           5
 Wavenumbers [cm-1]          435.65      421.46      162.53      154.95       22.31
 Intensities [km/mol]          0.00        0.00        0.00        0.00        0.00
 Intensities [relative]        0.00        0.00        0.00        0.00        0.00
           GX1             -0.00000    -0.02014    -0.01062    -0.00000     0.10660
           GY1              0.00000     0.19586    -0.03428     0.00000    -0.10662
           GZ1              0.21645    -0.00000     0.00000    -0.04271    -0.00000
           GX2             -0.00000    -0.06788     0.04198     0.00000     0.10657
           GY2             -0.00000    -0.04949     0.20498     0.00000    -0.10674
           GZ2             -0.06327     0.00000    -0.00000     0.21135    -0.00000
           GX3              0.00000     0.07722    -0.02694    -0.00000     0.10658
           GY3             -0.00000    -0.12815    -0.14941    -0.00000    -0.10643
           GZ3             -0.13410     0.00000     0.00000    -0.14764    -0.00000

                                  6
 Wavenumbers [cm-1]            0.06
 Intensities [km/mol]          0.00
 Intensities [relative]        0.00
           GX1              0.00000
           GY1              0.00000
           GZ1              0.15073
           GX2              0.00000
           GY2              0.00000
           GZ2              0.15073
           GX3              0.00000
           GY3              0.00000
           GZ3              0.15073


 Normal Modes of low/zero frequencies

                                  1
 Wavenumbers [cm-1]           22.31
 Intensities [km/mol]          0.00
 Intensities [relative]        0.00
           GX1              0.10661
           GY1              0.10657
           GZ1             -0.00000
           GX2              0.10657
           GY2              0.10640
           GZ2             -0.00000
           GX3              0.10658
           GY3              0.10675
           GZ3             -0.00000


 Zero point energy:  0.00629724 [H]     1382.08 [1/CM]       16.53 [KJ/MOL]

 Recomputing wavefunction at initial geometry


 Recomputing integrals since geometry changed

1PROGRAM * SEWARD (Integral evaluation for generally contracted gaussian basis sets)     Author: Roland Lindh, 1990

 Geometry written to block  1 of record 700


 Point group  C1  



 ATOMIC COORDINATES

 NR  ATOM    CHARGE       X              Y              Z

   1  N       7.00   -0.501730236   -0.289161233    0.000000000
   2  N       7.00   -2.591087609    0.175141897    0.000000000
   3  O       8.00    2.707672892    0.099820643    0.000000000

 Bond lengths in Bohr (Angstrom)

 1-2  2.140325122  1-3  3.232889627
     ( 1.132611279)     ( 1.710771516)

 Bond angles

  2-1-3  160.56057162

 NUCLEAR CHARGE:                   22
 NUMBER OF PRIMITIVE AOS:          81
 NUMBER OF SYMMETRY AOS:           78
 NUMBER OF CONTRACTIONS:           42   (  42A   )
 NUMBER OF CORE ORBITALS:           3   (   3A   )
 NUMBER OF VALENCE ORBITALS:       12   (  12A   )


 NUCLEAR REPULSION ENERGY   50.78312459

 EXTRA SYMMETRY OF AOS IN SYMMETRY 1:   1 1 1 1 1 2 1 1 2 1   1 2 1 2 1 1 1 1 1 2   1 1 2 1 1 2 1 2 1 1   1 1 1 2 1 1 2 1 1 2
                                        1 2

 Eigenvalues of metric

         1 0.365E-02 0.213E-01 0.385E-01 0.675E-01 0.892E-01 0.118E+00 0.118E+00 0.133E+00


 Contracted 2-electron integrals neglected if value below      1.0D-11
 AO integral compression algorithm  1   Integral accuracy      1.0D-11

     1.835 MB (compressed) written to integral file ( 60.4%)

     Node minimum: 0.262 MB, node maximum: 0.262 MB


 NUMBER OF SORTED TWO-ELECTRON INTEGRALS:      58695.     BUFFER LENGTH:  32768
 NUMBER OF SEGMENTS:   1  SEGMENT LENGTH:      58695      RECORD LENGTH: 524288

 Memory used in sort:       0.62 MW

 SORT1 READ      544483. AND WROTE       30568. INTEGRALS IN      1 RECORDS. CPU TIME:     0.00 SEC, REAL TIME:     0.01 SEC
 SORT2 READ      205882. AND WROTE      408156. INTEGRALS IN      7 RECORDS. CPU TIME:     0.00 SEC, REAL TIME:     0.00 SEC

 Node minimum:       57921.  Node maximum:       58695. integrals

 OPERATOR DM      FOR CENTER  0  COORDINATES:    0.000000    0.000000    0.000000
1PROGRAM * RHF-SCF (OPEN SHELL)       Authors: W. Meyer, H.-J. Werner


 NUMBER OF ELECTRONS:      12+   10-    SPACE SYMMETRY=1    SPIN SYMMETRY: Triplet 
 CONVERGENCE THRESHOLDS:    1.00E-06 (Density)    1.00E-08 (Energy)
 MAX. NUMBER OF ITERATIONS:     1000
 INTERPOLATION TYPE:            DIIS
 INTERPOLATION STEPS:              2 (START)      1 (STEP)
 LEVEL SHIFTS:                 -0.60 (CLOSED) -0.30 (OPEN) 

 Number of closed-shell orbitals:   10 (  10 )
 Number of open-shell orbitals:      2 (   2 )


 Molecular orbitals read from record     2100.2  Type=RHF/CANONICAL (state 1.1)

 Molecular orbital dump at record        2100.2

 ITERATION    DDIFF          GRAD             ENERGY        2-EL.EN.            DIPOLE MOMENTS         DIIS   ORB.
    1      0.000D+00      0.000D+00      -183.64971900    234.519731   -0.19486   -0.01930   -0.00000    0    start
    2      0.000D+00      0.370D-07      -183.64971900    234.519730   -0.19486   -0.01930    0.00000    0    orth

 Final alpha occupancy:  12
 Final beta  occupancy:  10

 !RHF STATE 1.1 Energy               -183.649719004634
 Nuclear energy                        50.78312459
 One-electron energy                 -351.69270882
 Two-electron energy                  117.25986523
 Virial quotient                       -0.99971054
 !RHF STATE 1.1 Dipole moment          -0.19485851    -0.01930052     0.00000000
 Dipole moment /Debye                  -0.49524849    -0.04905382     0.00000000

 Orbital energies:

         1.1          2.1          3.1          4.1          5.1          6.1          7.1          8.1          9.1         10.1
    -20.631218   -15.705540   -15.702067    -1.459764    -1.253358    -0.807104    -0.654771    -0.619982    -0.610035    -0.526222

        11.1         12.1         13.1         14.1
     -0.668689    -0.564168     0.146625     0.151175

 HOMO     12.1    -0.564168 =     -15.3518eV
 LUMO     13.1     0.146625 =       3.9899eV
 LUMO-HOMO         0.710794 =      19.3417eV


 **********************************************************************************************************************************
 DATASETS  * FILE   NREC   LENGTH (MB)   RECORD NAMES
              1      18       19.17       500      610      700      900      950      970     1000      129      960     1100   
                                          VAR    BASINP    GEOM    SYMINP    ZMAT    AOBASIS   BASIS     P2S    ABASIS      S 
                                         1400     1410     1200     1210     1080     1600     1650     1700   
                                           T        V       H0       H01     AOSYM     SMH    MOLCAS    OPER   

              2       7        0.48       700     1000      520     2100     5300     5400     5450   
                                         GEOM     BASIS   MCVARS     RHF     HESS     FREQ     NMOD   

 PROGRAMS   *        TOTAL       RHF      RMP2       RHF       INT
 CPU TIMES  *        14.42      0.22      0.04      0.03      0.29
 REAL TIME  *        17.08 SEC
 DISK USED  *       172.04 MB      
 SF USED    *         3.56 MB      
 GA USED    *         0.00 MB       (max)       0.00 MB       (current)
 **********************************************************************************************************************************


1PROGRAM * RMP2 (Restricted open-shell)     Authors: H.-J. Werner, 2001


 Convergence thresholds:  THRVAR = 1.00D-12  THRDEN = 1.00D-08

 Number of core orbitals:           3 (   3 )
 Number of closed-shell orbitals:   7 (   7 )
 Number of active  orbitals:        2 (   2 )
 Number of external orbitals:      30 (  30 )

 Reading UHF information from record   2100.2

                               TOTAL       A-A         B-B         A-B
 Pair energies:            -0.43882749 -0.06865842 -0.05001991 -0.32014915
 Singles energies:         -0.00468630 -0.00230664 -0.00237966

 Reference energy                    -183.649719004634
 Correlation energy                    -0.443513790732
 !RMP2 STATE 1.1 Energy              -184.093232795366


 **********************************************************************************************************************************
 DATASETS  * FILE   NREC   LENGTH (MB)   RECORD NAMES
              1      18       19.17       500      610      700      900      950      970     1000      129      960     1100   
                                          VAR    BASINP    GEOM    SYMINP    ZMAT    AOBASIS   BASIS     P2S    ABASIS      S 
                                         1400     1410     1200     1210     1080     1600     1650     1700   
                                           T        V       H0       H01     AOSYM     SMH    MOLCAS    OPER   

              2       7        0.48       700     1000      520     2100     5300     5400     5450   
                                         GEOM     BASIS   MCVARS     RHF     HESS     FREQ     NMOD   

 PROGRAMS   *        TOTAL      RMP2      RMP2       RHF       INT
 CPU TIMES  *        14.47      0.04      0.04      0.03      0.29
 REAL TIME  *        17.12 SEC
 DISK USED  *       172.04 MB      
 SF USED    *         3.56 MB      
 GA USED    *         0.00 MB       (max)       0.00 MB       (current)
 **********************************************************************************************************************************


 **********************************************************************************************************************************
 DATASETS  * FILE   NREC   LENGTH (MB)   RECORD NAMES
              1      18       19.17       500      610      700      900      950      970     1000      129      960     1100   
                                          VAR    BASINP    GEOM    SYMINP    ZMAT    AOBASIS   BASIS     P2S    ABASIS      S 
                                         1400     1410     1200     1210     1080     1600     1650     1700   
                                           T        V       H0       H01     AOSYM     SMH    MOLCAS    OPER   

              2       7        0.48       700     1000      520     2100     5300     5400     5450   
                                         GEOM     BASIS   MCVARS     RHF     HESS     FREQ     NMOD   

 PROGRAMS   *        TOTAL      FREQ      RMP2       RHF       INT
 CPU TIMES  *        14.47     13.99      0.04      0.03      0.29
 REAL TIME  *        17.12 SEC
 DISK USED  *       172.04 MB      
 SF USED    *         3.56 MB      
 GA USED    *         0.00 MB       (max)       0.00 MB       (current)
 **********************************************************************************************************************************

 RMP2/cc-pVDZ energy=   -184.093232795366

        RMP2            RHF-SCF 
   -184.09323279   -183.64971900
 **********************************************************************************************************************************
 Variable memory released
