
 Primary working directories    : /scratch/kmoore
 Secondary working directories  : /scratch/kmoore
 Wavefunction directory         : /home/kmoore/wfu/
 Main file repository           : /scratch/kmoore/

 SHA1      : f86d681fdec979508940bfbbc93fd7db66630888
 NAME      : 2015.1.24
 ARCHNAME  : linux/x86_64
 FC        : /blues/gpfs/home/software/spack-0.10.1/opt/spack/linux-centos7-x86_64/intel-17.0.4/intel-mpi-2017.3-dfphq6kavje2olnichisvjjndtridrok/compilers_and_libraries_2017.4.196/linux/mpi/intel64/bin/mpiifort
 BLASLIB   : -L/blues/gpfs/home/software/spack-0.10.1/opt/spack/linux-centos7-x86_64/intel-17.0.4/intel-mkl-2017.3.196-jyjmyutcol3veyt4bazftyqkxxzmfd7o/pkg/compilers_and_libraries_2017.4.196/linux/mkl/lib/intel64 -lmkl_intel_ilp64 -lmkl_intel_thread -lmkl_core
 id        : anlgov

 Nodes     nprocs
 b460         3
 Number of processes for MPI-2 version of Molpro:   nprocs(total)=    4   nprocs(compute)=    3   nprocs(helper)=    1

 Using customized tuning parameters: mindgm=7; mindgv=16; mindgc=1; mindgr=1; noblas=0; minvec=7
 default implementation of scratch files=sf  

                                                                                 !
 memory,1280,m
                                                                                 ! wavefunction template
 angstrom
 geometry = {
            3
  ANT Direct Dynamics Calculation
 N           0.2558780000       -0.2896940000        0.0000000000
 N           1.2908390000        0.1667750000        0.0000000000
 O          -1.3671990000        0.1010380000        0.0000000000
 }
 set,spin=2
 set,charge=0
 basis=aug-cc-pvdz
 nn(1)=1
 nn(2)=2
 nn(3)=3
 {rhf,,maxit=300}
 {casscf,maxit=40
 closed,5
 wf,22,1,2,0}
 {rs2,shift=0.20}
 
 status,all,crash
 
 molpro_energy=energy
 show[1,e25.15],molpro_energy
 {force,varsav}
 text,MOLGRAD
 table,nn,gradx,grady,gradz
 ftyp,f,d,d,d

 Variables initialized (889), CPU time= 0.01 sec
 Commands  initialized (702), CPU time= 0.01 sec, 572 directives.
 Default parameters read. Elapsed time= 0.07 sec

 Checking input...
 Passed
1


                                         ***  PROGRAM SYSTEM MOLPRO  ***
                                       Copyright, TTI GmbH Stuttgart, 2015
                                    Version 2015.1 linked Sep 21 2017 09:51:13


 **********************************************************************************************************************************
 LABEL *                                                                                 
  64 bit mpp version                                                                     DATE: 17-Aug-21          TIME: 09:54:47  
 **********************************************************************************************************************************

 SHA1:             f86d681fdec979508940bfbbc93fd7db66630888
 **********************************************************************************************************************************
 ZUNIT=ANG
 

Geometry recognized as XYZ

 SETTING SPIN           =         2.00000000                                  
 SETTING CHARGE         =     0.00000000D+00                                  

 Variable memory set to 1280000000 words,  buffer space   230000 words

 SETTING BASIS          =    AUG-CC-PVDZ
 SETTING NN(1)          =         1.00000000                                  
 SETTING NN(2)          =         2.00000000                                  
 SETTING NN(3)          =         3.00000000                                  


 Recomputing integrals since basis changed


 Using spherical harmonics

 Library entry N      S aug-cc-pVDZ          selected for orbital group  1
 Library entry N      P aug-cc-pVDZ          selected for orbital group  1
 Library entry N      D aug-cc-pVDZ          selected for orbital group  1
 Library entry O      S aug-cc-pVDZ          selected for orbital group  2
 Library entry O      P aug-cc-pVDZ          selected for orbital group  2
 Library entry O      D aug-cc-pVDZ          selected for orbital group  2


 PROGRAM * SEWARD (Integral evaluation for generally contracted gaussian basis sets)     Author: Roland Lindh, 1990

 Geometry written to block  1 of record 700


 Point group  Cs  



 ATOMIC COORDINATES

 NR  ATOM    CHARGE       X              Y              Z

   1  N       7.00    0.483539341   -0.547442320    0.000000000
   2  N       7.00    2.439332181    0.315159074    0.000000000
   3  O       8.00   -2.583631668    0.190934148    0.000000000

 Bond lengths in Bohr (Angstrom)

 1-2  2.137570302  1-3  3.154796001
     ( 1.131153491)     ( 1.669446149)

 Bond angles

  2-1-3  142.66458375

 NUCLEAR CHARGE:                   22
 NUMBER OF PRIMITIVE AOS:         111
 NUMBER OF SYMMETRY AOS:          105
 NUMBER OF CONTRACTIONS:           69   (  48A'  +  21A"  )
 NUMBER OF CORE ORBITALS:           3   (   3A'  +   0A"  )
 NUMBER OF VALENCE ORBITALS:       12   (   9A'  +   3A"  )


 NUCLEAR REPULSION ENERGY   51.81936239

 Eigenvalues of metric

         1 0.133E-03 0.570E-03 0.266E-02 0.465E-02 0.106E-01 0.184E-01 0.325E-01 0.376E-01
         2 0.104E-01 0.372E-01 0.820E-01 0.161E+00 0.173E+00 0.254E+00 0.328E+00 0.361E+00


 Contracted 2-electron integrals neglected if value below      1.0D-11
 AO integral compression algorithm  1   Integral accuracy      1.0D-11

     9.699 MB (compressed) written to integral file ( 56.5%)

     Node minimum: 3.146 MB, node maximum: 3.408 MB


 NUMBER OF SORTED TWO-ELECTRON INTEGRALS:     511749.     BUFFER LENGTH:  32768
 NUMBER OF SEGMENTS:   1  SEGMENT LENGTH:     511749      RECORD LENGTH: 524288

 Memory used in sort:       1.07 MW

 SORT1 READ     2065561. AND WROTE      494014. INTEGRALS IN      2 RECORDS. CPU TIME:     0.02 SEC, REAL TIME:     0.03 SEC
 SORT2 READ     1485906. AND WROTE     1533840. INTEGRALS IN     39 RECORDS. CPU TIME:     0.02 SEC, REAL TIME:     0.02 SEC

 Node minimum:      510811.  Node maximum:      511749. integrals

 OPERATOR DM      FOR CENTER  0  COORDINATES:    0.000000    0.000000    0.000000


 **********************************************************************************************************************************
 DATASETS  * FILE   NREC   LENGTH (MB)   RECORD NAMES
              1      18       19.21       500      610      700      900      950      970     1000      129      960     1100   
                                          VAR    BASINP    GEOM    SYMINP    ZMAT    AOBASIS   BASIS     P2S    ABASIS      S 
                                         1400     1410     1200     1210     1080     1600     1650     1700   
                                           T        V       H0       H01     AOSYM     SMH    MOLCAS    OPER   

 PROGRAMS   *        TOTAL       INT
 CPU TIMES  *         0.40      0.25
 REAL TIME  *         1.02 SEC
 DISK USED  *        32.11 MB      
 GA USED    *         0.00 MB       (max)       0.00 MB       (current)
 **********************************************************************************************************************************


 PROGRAM * RHF-SCF (OPEN SHELL)       Authors: W. Meyer, H.-J. Werner


 NUMBER OF ELECTRONS:      12+   10-
 CONVERGENCE THRESHOLDS:    1.00E-06 (Density)    1.00E-07 (Energy)
 MAX. NUMBER OF ITERATIONS:      300
 INTERPOLATION TYPE:            DIIS
 INTERPOLATION STEPS:              2 (START)      1 (STEP)
 LEVEL SHIFTS:                 -0.60 (CLOSED) -0.30 (OPEN) 



 Orbital guess generated from atomic densities. Full valence occupancy:   12   3

 Molecular orbital dump at record        2100.2

 Initial alpha occupancy:  10   2
 Initial beta  occupancy:   8   2
 Wave function symmetry:    1

 ITERATION    DDIFF          GRAD             ENERGY        2-EL.EN.            DIPOLE MOMENTS         DIIS   ORB.
    1      0.000D+00      0.000D+00      -183.50154650    232.306318    1.10533   -0.27323    0.00000    0    start
    2      0.000D+00      0.112D-01      -183.59940039    235.064476    0.32750   -0.05455    0.00000    1    diag,B
    3      0.191D-01      0.487D-02      -183.62120290    235.505975    0.31945   -0.08228    0.00000    2    diag,B
    4      0.822D-02      0.242D-02      -183.63762620    235.733074    0.25694   -0.06069    0.00000    3    diag,B
    5      0.469D-02      0.169D-02      -183.64924813    235.891588    0.20493   -0.05487    0.00000    4    diag,B
    6      0.475D-02      0.105D-02      -183.65440245    235.985506    0.16834   -0.05002    0.00000    5    diag,B
    7      0.358D-02      0.558D-03      -183.65567343    236.021966    0.13167   -0.05216    0.00000    6    fixocc
    8      0.236D-02      0.173D-03      -183.65572200    236.032888    0.12822   -0.05022    0.00000    7    diag,B
    9      0.458D-03      0.667D-04      -183.65573226    236.032531    0.12123   -0.05042    0.00000    8    diag,B
   10      0.203D-03      0.300D-04      -183.65573396    236.034930    0.11887   -0.05035    0.00000    9    orth
   11      0.701D-04      0.133D-04      -183.65573433    236.033644    0.11835   -0.05033    0.00000    9    diag,B
   12      0.548D-04      0.711D-05      -183.65573445    236.034341    0.11771   -0.05041    0.00000    9    diag,B
   13      0.226D-04      0.332D-05      -183.65573448    236.034207    0.11756   -0.05043    0.00000    9    diag,B
   14      0.127D-04      0.124D-05      -183.65573448    236.034188    0.11758   -0.05044    0.00000    9    diag,B
   15      0.404D-05      0.483D-06      -183.65573448    236.034155    0.11762   -0.05044    0.00000    9    diag,B
   16      0.210D-05      0.175D-06      -183.65573448    236.034156    0.11762   -0.05044    0.00000    9    diag,B
   17      0.573D-06      0.875D-07      -183.65573448    236.034157    0.11762   -0.05044    0.00000    0    orth

 Final alpha occupancy:  10   2
 Final beta  occupancy:   8   2

 !RHF STATE 1.1 Energy               -183.655734484060
 Nuclear energy                        51.81936239
 One-electron energy                 -353.49217540
 Two-electron energy                  118.01707853
 Virial quotient                       -1.00033442
 !RHF STATE 1.1 Dipole moment           0.11762289    -0.05043681     0.00000000
 Dipole moment /Debye                   0.29894798    -0.12818920     0.00000000

 Orbital energies:

         1.1          2.1          3.1          4.1          5.1          6.1          7.1          8.1          9.1         10.1
    -20.659602   -15.717632   -15.710324    -1.470585    -1.276409    -0.814502    -0.661968    -0.620983    -0.687871    -0.561894

        11.1         12.1
      0.102662     0.113470

         1.2          2.2          3.2          4.2
     -0.632260    -0.539862     0.113785     0.156435

 HOMO      2.2    -0.539862 =     -14.6904eV
 LUMO     11.1     0.102662 =       2.7936eV
 LUMO-HOMO         0.642524 =      17.4840eV


 **********************************************************************************************************************************
 DATASETS  * FILE   NREC   LENGTH (MB)   RECORD NAMES
              1      18       19.21       500      610      700      900      950      970     1000      129      960     1100   
                                          VAR    BASINP    GEOM    SYMINP    ZMAT    AOBASIS   BASIS     P2S    ABASIS      S 
                                         1400     1410     1200     1210     1080     1600     1650     1700   
                                           T        V       H0       H01     AOSYM     SMH    MOLCAS    OPER   

              2       4        2.86       700     1000      520     2100   
                                         GEOM     BASIS   MCVARS     RHF  

 PROGRAMS   *        TOTAL       RHF       INT
 CPU TIMES  *         0.54      0.14      0.25
 REAL TIME  *         1.19 SEC
 DISK USED  *        99.69 MB      
 SF USED    *         0.01 MB      
 GA USED    *         0.00 MB       (max)       0.00 MB       (current)
 **********************************************************************************************************************************


 PROGRAM * MULTI (Direct Multiconfiguration SCF)       Authors: P.J. Knowles, H.-J. Werner (1984)     S.T. Elbert (1988)


 Number of closed-shell orbitals:   5 (   5   0 )
 Number of active  orbitals:       10 (   7   3 )
 Number of external orbitals:      54 (  36  18 )

 State symmetry 1

 Number of electrons:    12    Spin symmetry=Triplet   Space symmetry=1
 Number of states:        1
 Number of CSFs:      10374   (15120 determinants, 30240 intermediate states)

 Molecular orbitals read from record     2100.2  Type=RHF/CANONICAL (state 1.1)

 Wavefunction dump at record             2140.2

 Convergence thresholds  0.10E-01 (gradient)  0.10E-05 (energy)  0.10E-02 (step length)

 Number of orbital rotations:      521   (    35 Core/Active    180 Core/Virtual   0 Active/Active    306 Active/Virtual)
 Total number of variables:      15641


 ITER. MIC  NCI  NEG     ENERGY(VAR)     ENERGY(PROJ)   ENERGY CHANGE     GRAD(0)  GRAD(ORB)   GRAD(CI)     STEP       TIME

   1   70   26    0    -183.67175431    -183.80308761   -0.13133330    0.03289198 0.00136590 0.01549522  0.14D+01      0.46
   2   41   35    0    -183.80507974    -183.81358594   -0.00850620    0.05342058 0.00000200 0.00235894  0.42D+00      1.12
   3   37   31    0    -183.81448093    -183.81474618   -0.00026526    0.01282835 0.00000011 0.00024449  0.67D-01      1.72
   4   28   25    0    -183.81475405    -183.81475476   -0.00000071    0.00063464 0.00000084 0.00002393  0.33D-02      2.18
   5   27   13    0    -183.81475476    -183.81475476   -0.00000000    0.00000561 0.00000008 0.00000145  0.10D-04      2.40

 ** WVFN ****  CONVERGENCE REACHED, FINAL GRADIENT:  0.50D-06


 First order charge density matrix for state 1.1 saved on record  2140.2 (density set 1)

 Results for state 1.1
 =====================

 !MCSCF STATE 1.1 Energy             -183.814754758376
 Nuclear energy                        51.81936239
 Kinetic energy                       183.96516148
 One electron energy                 -353.70721676
 Two electron energy                  118.07309961
 Virial ratio                           1.99918242

 !MCSCF STATE 1.1 Dipole moment         0.11554207    -0.06958325     0.00000000
 Dipole moment /Debye                   0.29365940    -0.17685140     0.00000000


 Natural orbital dump at molpro section  2140.2    (Orbital set 2)



 **********************************************************************************************************************************
 DATASETS  * FILE   NREC   LENGTH (MB)   RECORD NAMES
              1      19       22.92       500      610      700      900      950      970     1000      129      960     1100   
                                          VAR    BASINP    GEOM    SYMINP    ZMAT    AOBASIS   BASIS     P2S    ABASIS      S 
                                         1400     1410     1200     1210     1080     1600     1650     1700     1380   
                                           T        V       H0       H01     AOSYM     SMH    MOLCAS    OPER     JKOP   

              2       5        5.45       700     1000      520     2100     2140   
                                         GEOM     BASIS   MCVARS     RHF     MCSCF   

 PROGRAMS   *        TOTAL    CASSCF       RHF       INT
 CPU TIMES  *         3.09      2.55      0.14      0.25
 REAL TIME  *         4.45 SEC
 DISK USED  *        99.69 MB      
 SF USED    *        24.77 MB      
 GA USED    *         0.00 MB       (max)       0.00 MB       (current)
 **********************************************************************************************************************************


 PROGRAM * RS2 (Multireference RS Perturbation Theory)     Authors: H.-J. Werner (1993), P. Celani (1998)


 Level shift= 0.20

 Convergence thresholds:  THRVAR = 1.00D-10  THRDEN = 1.00D-08

 Number of optimized states:  1  Roots:   1
 Number of reference states:  1  Roots:   1

 Reference symmetry:                   1   Triplet 
 Number of electrons:                 22
 Maximum number of shells:             6
 Maximum number of spin couplings:   297

 Reference space:     3283 conf    10374 CSFs
 N elec internal:    24345 conf   101970 CSFs
 N-1 el internal:    36037 conf   292275 CSFs
 N-2 el internal:    35292 conf   548774 CSFs

 Number of electrons in valence space:                     16
 Maximum number of open shell orbitals in reference space:  8
 Maximum number of open shell orbitals in internal spaces: 12


 Number of core orbitals:           3 (   3   0 )
 Number of closed-shell orbitals:   2 (   2   0 )
 Number of active  orbitals:       10 (   7   3 )
 Number of external orbitals:      54 (  36  18 )

 Molecular orbitals read from record     2140.2  Type=MCSCF/NATURAL (state 1.1)

 Coulomb and exchange operators available. No transformation done.

 Number of p-space configurations:  23

 Reference wavefunction optimized for reference space (refopt=1)

 State     Reference Energy 
   1        -183.81475476

 Number of blocks in overlap matrix:     4   Smallest eigenvalue:  0.16D-01
 Number of N-2 electron functions:     144
 Number of N-1 electron functions:  292275

 Number of internal configurations:                50982
 Number of singly external configurations:       7897302
 Number of doubly external configurations:        108216
 Total number of contracted configurations:      8056500
 Total number of uncontracted configurations:  417836877

 Weight factors for SA-density in H0:    1.000000

 FIMAX=  0.27D+00  FXMAX=  0.49D-07  DIAG=  F  F  NOREF=1  NOINT=0  IHPPD=2

 Nuclear energy:                      51.81936239
 Core energy:                       -173.21434980
 Zeroth-order valence energy:        -12.09903251
 Zeroth-order total energy:         -133.49401992
 First-order energy:                 -50.32073483

 Using uncontracted singles

 Diagonal Coupling coefficients finished.               Storage: 1766116 words, CPU-Time:      0.00 seconds.
 Energy denominators for pairs finished in 0 passes.    Storage: 1759081 words, CPU-time:      0.00 seconds.

 A level shift of 0.20 is applied.

  ITER. STATE  ROOT     SQ.NORM     CORR.ENERGY   TOTAL ENERGY   ENERGY CHANGE       DEN1      VAR(S)    VAR(P)      TIME
    1     1     1     1.03728318    -0.00745664  -183.82221139    -0.00745664    -0.29778490  0.37D-01  0.42D-01     9.57
    2     1     1     1.08388921    -0.32191003  -184.13666479    -0.31445340    -0.00277832  0.52D-03  0.17D-03    18.08
    3     1     1     1.08528766    -0.32433533  -184.13909009    -0.00242529    -0.00155462  0.20D-04  0.32D-05    26.50
    4     1     1     1.08558363    -0.32445889  -184.13921365    -0.00012356    -0.00005220  0.11D-05  0.15D-06    34.99
    5     1     1     1.08564539    -0.32447428  -184.13922904    -0.00001539    -0.00004791  0.93D-07  0.72D-08    43.38
    6     1     1     1.08565405    -0.32447621  -184.13923097    -0.00000193    -0.00000034  0.11D-07  0.51D-09    51.80
    7     1     1     1.08565718    -0.32447686  -184.13923162    -0.00000064    -0.00000242  0.15D-08  0.40D-10    60.20
    8     1     1     1.08565746    -0.32447691  -184.13923167    -0.00000005     0.00000017  0.26D-09  0.41D-11    68.56
    9     1     1     1.08565768    -0.32447696  -184.13923171    -0.00000004    -0.00000018  0.48D-10  0.50D-12    76.90
   10     1     1     1.08565767    -0.32447695  -184.13923171     0.00000000     0.00000003  0.96D-11  0.68D-13    85.20
   11     1     1     1.08565770    -0.32447696  -184.13923172    -0.00000000    -0.00000002  0.20D-11  0.11D-13    93.52

 Energies without level shift correction:

   11     1     1     1.08565770    -0.30734542  -184.12210018

 Energy contributions for state 1.1:
 ===================================

            Energy contr.      SQ.Norm of FOWF
 Space I     -0.00550275          0.00261176
 Space S     -0.12154848          0.04055787
 Space P     -0.18029419          0.04248807


 =====================================
 Analysis of CPU times by interactions
 =====================================

       I      S      P

 I   2.3%
 S  15.5%  33.4%
 P   0.7%  36.4%   0.0%

 Initialization:   6.4%
 Other:            5.2%

 Total CPU:       93.5 seconds
 =====================================


 Initialize record     7000.1
 Now solve CP-CASPT2 equations

 A level shift of 0.20 is applied.

  ITER. STATE  ROOT     SQ.NORM     CORR.ENERGY   TOTAL ENERGY   ENERGY CHANGE       DEN1      VAR(S)    VAR(P)      TIME
    1     1     1     1.05311626    -0.01612600  -183.83088075    -0.01612600    -0.36684606  0.51D-01  0.52D-01   114.46
    2     1     1     1.10915705    -0.39951581  -184.21427057    -0.38338982    -0.00417037  0.72D-03  0.23D-03   123.01
    3     1     1     1.11126005    -0.40281831  -184.21757307    -0.00330250    -0.00208195  0.29D-04  0.44D-05   131.49
    4     1     1     1.11167636    -0.40299082  -184.21774558    -0.00017251    -0.00008754  0.16D-05  0.23D-06   140.02
    5     1     1     1.11176907    -0.40301366  -184.21776841    -0.00002283    -0.00006602  0.14D-06  0.10D-07   148.59
    6     1     1     1.11178197    -0.40301652  -184.21777128    -0.00000286    -0.00000135  0.15D-07  0.74D-09   156.93
    7     1     1     1.11178675    -0.40301750  -184.21777226    -0.00000098    -0.00000338  0.22D-08  0.57D-10   165.31
    8     1     1     1.11178720    -0.40301759  -184.21777235    -0.00000009     0.00000018  0.36D-09  0.57D-11   173.59
    9     1     1     1.11178753    -0.40301766  -184.21777241    -0.00000007    -0.00000026  0.68D-10  0.68D-12   181.95
   10     1     1     1.11178753    -0.40301765  -184.21777241     0.00000000     0.00000004  0.13D-10  0.94D-13   190.34
   11     1     1     1.11178757    -0.40301766  -184.21777242    -0.00000001    -0.00000003  0.28D-11  0.14D-13   198.64

 Energies without level shift correction:

   11     1     1     1.11178757    -0.38066015  -184.19541491

 Energy contributions for state 1.1:
 ===================================

            Energy contr.      SQ.Norm of FOWF
 Space I     -0.00779260          0.00378382
 Space S     -0.15671203          0.05551467
 Space P     -0.21615552          0.05248907


 =====================================
 Analysis of CPU times by interactions
 =====================================

       I      S      P

 I   1.1%
 S  14.2%  31.5%
 P   0.3%  34.4%   0.0%

 Initialization:  48.9%
 Other:          -30.4%

 Total CPU:      198.6 seconds
 =====================================



 Reference coefficients greater than 0.0500000
 =============================================
 22222//00220           0.9533149
 22222//00202          -0.1266357
 22220//20220          -0.1102672
 2222///\02/\          -0.0706192
 2222///\02\/           0.0688070
 222/2\//0220          -0.0647985
 2222/\//02/\          -0.0599326



 RESULTS FOR STATE 1.1
 =====================

 Coefficient of reference function:   C(0) = 1.00000000 (fixed)   1.00000000 (relaxed)

 Energy contributions of configuration classes

 CLASS          SQ.NORM        ECORR1        ECORR2
 +++++++++++++++++++++++++++++++++++++++++++++++++++
 Internals    0.00378382   -0.00653648    0.27897491
 Singles      0.05551467   -0.13778913   -0.25103453
 Pairs        0.05248907   -0.19728289   -0.35241735
 Total        1.11178757   -0.34160850   -0.32447696
 +++++++++++++++++++++++++++++++++++++++++++++++++++


 Reference energy                    -183.81475476
 Nuclear energy                        51.81936239
 Kinetic energy                       184.21280927
 One electron energy                 -353.48222953
 Two electron energy                  117.52363542
 Virial quotient                       -0.99960058
 Correlation energy                    -0.32447696
 !RSPT2 STATE 1.1 Energy             -184.139231717024

 Properties without orbital relaxation:

 !RSPT2 STATE 1.1 Dipole moment         0.12596212    -0.06705108     0.00000000
 Dipole moment /Debye                   0.32014281    -0.17041568     0.00000000


 **********************************************************************************************************************************


 PROGRAM * MULTI (Direct Multiconfiguration SCF)       Authors: P.J. Knowles, H.-J. Werner (1984)     S.T. Elbert (1988)


 Number of closed-shell orbitals:   5 (   5   0 )
 Number of active  orbitals:       10 (   7   3 )
 Number of external orbitals:      54 (  36  18 )

 State symmetry 1

 Number of electrons:    12    Spin symmetry=Triplet   Space symmetry=1
 Number of states:        1
 Number of CSFs:      10374
 
 Maximum number of shells:             6
 Maximum number of spin couplings:   297

 Storage for configuration lists   23753, coupling coefficients1494454, address lists 248643

 Molecular orbitals read from record     2140.2  Type=MCSCF/NATURAL (state 1.1)

 Wavefunction dump at record             3140.4

 Convergence thresholds  0.10E-04 (gradient)  0.10E-07 (energy)  0.10E-02 (step length)

 Eigenvalues of redundancy matrix
   1- 10   -0.000000   -0.000000   -0.000000   -0.000000   -0.000000   -0.000000   -0.000000   -0.000000   -0.000000    0.000000
  11- 20    0.000000    0.000000    0.000000    0.000000    0.000000    0.000000    0.000000    0.000000    0.000000    0.000000
  21- 24    0.000000    0.000000    0.000000    0.000000

 Number of orbital rotations:      521   (    35 Core/Active    180 Core/Virtual   0 Active/Active    306 Active/Virtual)
 Total number of variables:      10895


 ITER. MIC  NCI  NEG     ENERGY(VAR)     ENERGY(PROJ)   ENERGY CHANGE     GRAD(0)  GRAD(ORB)   GRAD(CI)     STEP       TIME

   1   27   20    0    -183.81475476    -183.81475476    0.00000000    0.00000049 0.00000000 0.00000019  0.00D+00      1.03

 Warning: orbitals not optimized!

 Solving MCSCF z-vector equations for state  1.1, requested accuracy=      0.10D-05
 Convergence reached in  19 iterations ( 19 expansion vectors), accuracy=  0.66D-06

 Properties including orbital relaxation:

 !RSPT2 dipole moments (ED):            0.19896052    -0.07420188     0.00000000

 RSPT2 Gradient info saved on record         5200.1

 CPU-time for rhs:           31.70 sec
 CPU-time for cpmcscf:        3.22 sec
 CPU-time for densities:      0.00 sec


 **********************************************************************************************************************************
 DATASETS  * FILE   NREC   LENGTH (MB)   RECORD NAMES
              1      25      153.92       500      610      700      900      950      970     1000      129      960     1100   
                                          VAR    BASINP    GEOM    SYMINP    ZMAT    AOBASIS   BASIS     P2S    ABASIS      S 
                                         1400     1410     1200     1210     1080     1600     1650     1700     1380     7000   
                                           T        V       H0       H01     AOSYM     SMH    MOLCAS    OPER     JKOP   
                                         7001     5200     5210     7009     7005   
                                                 RS2GRAD  RS2GRAD    

              2       5        5.45       700     1000      520     2100     2140   
                                         GEOM     BASIS   MCVARS     RHF     MCSCF   

 PROGRAMS   *        TOTAL       RS2    CASSCF       RHF       INT
 CPU TIMES  *       266.77    263.68      2.55      0.14      0.25
 REAL TIME  *       277.77 SEC
 DISK USED  *        99.69 MB      
 SF USED    *       611.64 MB      
 GA USED    *         0.00 MB       (max)       0.00 MB       (current)
 **********************************************************************************************************************************
 
 STEP  1 RHF-SCF        O.K.    
 STEP  2 CASSCF         O.K.    
 STEP  3 RS2            O.K.    
 SETTING MOLPRO_ENERGY  =      -184.13923172  AU                              
 MOLPRO_ENERGY    =       -0.184139231717024E+03 AU


 PROGRAM * ALASKA (Gradient of the energy)     Author: R. Lindh


 RSPT2 Gradient info restored from record    5200.1

 Number of core orbitals:           3 (   3   0 )
 Number of closed-shell orbitals:   2 (   2   0 )
 Number of active  orbitals:       10 (   7   3 )
 Number of external orbitals:      54 (  36  18 )

 Integral thresholds in T2TRAN:            1.0D-10 (PROD)

 Available memory for Transformation:1277797029 words
 Memory needed for incore algorithm:     402848 words
 Minimum memory needed:                  148238 words

 Memory used for transformation:           0.40 MW
 Available memory for gradients:        1279.39 MW

 CPU for transformation:                   0.01 sec
 CPU for integrals and gradient:           1.28 sec
 Total CPU:                                1.29 sec

 Prescreening statistics:
 ========================

 Total number of shell quadruplets:        2.26D+02
 Number of shell quadruplets processed:    2.26D+02 (100.00%)

 RSPT2 GRADIENT FOR STATE 1.1

 Atom          dE/dx               dE/dy               dE/dz

   1        -0.063422078         0.039280463         0.000000000
   2        -0.000033633        -0.014663563         0.000000000
   3         0.063455711        -0.024616900         0.000000000

 Nuclear force contribution to virial =        -0.225520647


 **********************************************************************************************************************************
 DATASETS  * FILE   NREC   LENGTH (MB)   RECORD NAMES
              1      25      153.92       500      610      700      900      950      970     1000      129      960     1100   
                                          VAR    BASINP    GEOM    SYMINP    ZMAT    AOBASIS   BASIS     P2S    ABASIS      S 
                                         1400     1410     1200     1210     1080     1600     1650     1700     1380     7000   
                                           T        V       H0       H01     AOSYM     SMH    MOLCAS    OPER     JKOP   
                                         7001     5200     5210     7009     7005   
                                                 RS2GRAD  RS2GRAD    

              2       5        5.45       700     1000      520     2100     2140   
                                         GEOM     BASIS   MCVARS     RHF     MCSCF   

 PROGRAMS   *        TOTAL     FORCE       RS2    CASSCF       RHF       INT
 CPU TIMES  *       269.05      2.28    263.68      2.55      0.14      0.25
 REAL TIME  *       281.50 SEC
 DISK USED  *        99.69 MB      
 SF USED    *       611.64 MB      
 GA USED    *         0.00 MB       (max)       0.00 MB       (current)
 **********************************************************************************************************************************

 *** MOLGRAD
                                                                                                                                                                                                                                                                

     NN          GRADX             GRADY        GRADZ
    1.0   -6.34220777D-02    3.92804631D-02   0.0D+00
    2.0   -3.36334265D-05   -1.46635634D-02   0.0D+00
    3.0    6.34557112D-02   -2.46168997D-02   0.0D+00
                                                  

 RS2/aug-cc-pVDZ energy=   -184.139231717024

        RS2             CASSCF          RHF-SCF 
   -184.13923172   -183.81475476   -183.65573448
 **********************************************************************************************************************************
 Molpro calculation terminated
 Variable memory released
