
 Primary working directories    : /scratch/kmoore
 Secondary working directories  : /scratch/kmoore
 Wavefunction directory         : /home/kmoore/wfu/
 Main file repository           : /scratch/kmoore/

 SHA1      : f86d681fdec979508940bfbbc93fd7db66630888
 NAME      : 2015.1.24
 ARCHNAME  : linux/x86_64
 FC        : /blues/gpfs/home/software/spack-0.10.1/opt/spack/linux-centos7-x86_64/intel-17.0.4/intel-mpi-2017.3-dfphq6kavje2olnichisvjjndtridrok/compilers_and_libraries_2017.4.196/linux/mpi/intel64/bin/mpiifort
 BLASLIB   : -L/blues/gpfs/home/software/spack-0.10.1/opt/spack/linux-centos7-x86_64/intel-17.0.4/intel-mkl-2017.3.196-jyjmyutcol3veyt4bazftyqkxxzmfd7o/pkg/compilers_and_libraries_2017.4.196/linux/mkl/lib/intel64 -lmkl_intel_ilp64 -lmkl_intel_thread -lmkl_core
 id        : anlgov

 Nodes     nprocs
 b460         3
 Number of processes for MPI-2 version of Molpro:   nprocs(total)=    4   nprocs(compute)=    3   nprocs(helper)=    1

 Using customized tuning parameters: mindgm=7; mindgv=16; mindgc=1; mindgr=1; noblas=0; minvec=7
 default implementation of scratch files=sf  

                                                                                 !
 memory,1280,m
                                                                                 ! wavefunction template
 angstrom
 geometry = {
            3
  ANT Direct Dynamics Calculation
 N           0.2557141799       -0.2910375824        0.0000000000
 N           1.2893185433        0.1675817635        0.0000000000
 O          -1.3655147220        0.1015748187        0.0000000000
 }
 set,spin=0
 set,charge=0
 basis=aug-cc-pvdz
 nn(1)=1
 nn(2)=2
 nn(3)=3
 {rhf,,maxit=300}
 {casscf,maxit=40
 closed,5
 wf,22,1,0,0}
 {rs2,shift=0.20}
 
 status,all,crash
 
 molpro_energy=energy
 show[1,e25.15],molpro_energy
 {force,varsav}
 text,MOLGRAD
 table,nn,gradx,grady,gradz
 ftyp,f,d,d,d

 Variables initialized (889), CPU time= 0.00 sec
 Commands  initialized (702), CPU time= 0.01 sec, 572 directives.
 Default parameters read. Elapsed time= 0.08 sec

 Checking input...
 Passed
1


                                         ***  PROGRAM SYSTEM MOLPRO  ***
                                       Copyright, TTI GmbH Stuttgart, 2015
                                    Version 2015.1 linked Sep 21 2017 09:51:13


 **********************************************************************************************************************************
 LABEL *                                                                                 
  64 bit mpp version                                                                     DATE: 17-Aug-21          TIME: 10:47:12  
 **********************************************************************************************************************************

 SHA1:             f86d681fdec979508940bfbbc93fd7db66630888
 **********************************************************************************************************************************
 ZUNIT=ANG
 

Geometry recognized as XYZ

 SETTING SPIN           =     0.00000000D+00                                  
 SETTING CHARGE         =     0.00000000D+00                                  

 Variable memory set to 1280000000 words,  buffer space   230000 words

 SETTING BASIS          =    AUG-CC-PVDZ
 SETTING NN(1)          =         1.00000000                                  
 SETTING NN(2)          =         2.00000000                                  
 SETTING NN(3)          =         3.00000000                                  


 Recomputing integrals since basis changed


 Using spherical harmonics

 Library entry N      S aug-cc-pVDZ          selected for orbital group  1
 Library entry N      P aug-cc-pVDZ          selected for orbital group  1
 Library entry N      D aug-cc-pVDZ          selected for orbital group  1
 Library entry O      S aug-cc-pVDZ          selected for orbital group  2
 Library entry O      P aug-cc-pVDZ          selected for orbital group  2
 Library entry O      D aug-cc-pVDZ          selected for orbital group  2


 PROGRAM * SEWARD (Integral evaluation for generally contracted gaussian basis sets)     Author: Roland Lindh, 1990

 Geometry written to block  1 of record 700


 Point group  Cs  



 ATOMIC COORDINATES

 NR  ATOM    CHARGE       X              Y              Z

   1  N       7.00    0.483229766   -0.549981323    0.000000000
   2  N       7.00    2.436458934    0.316683636    0.000000000
   3  O       8.00   -2.580448844    0.191948588    0.000000000

 Bond lengths in Bohr (Angstrom)

 1-2  2.136869751  1-3  3.152235178
     ( 1.130782775)     ( 1.668091020)

 Bond angles

  2-1-3  142.45950224

 NUCLEAR CHARGE:                   22
 NUMBER OF PRIMITIVE AOS:         111
 NUMBER OF SYMMETRY AOS:          105
 NUMBER OF CONTRACTIONS:           69   (  48A'  +  21A"  )
 NUMBER OF CORE ORBITALS:           3   (   3A'  +   0A"  )
 NUMBER OF VALENCE ORBITALS:       12   (   9A'  +   3A"  )


 NUCLEAR REPULSION ENERGY   51.85471553

 Eigenvalues of metric

         1 0.133E-03 0.569E-03 0.265E-02 0.465E-02 0.106E-01 0.184E-01 0.325E-01 0.376E-01
         2 0.104E-01 0.372E-01 0.818E-01 0.161E+00 0.173E+00 0.254E+00 0.328E+00 0.361E+00


 Contracted 2-electron integrals neglected if value below      1.0D-11
 AO integral compression algorithm  1   Integral accuracy      1.0D-11

     9.437 MB (compressed) written to integral file ( 58.1%)

     Node minimum: 3.146 MB, node maximum: 3.146 MB


 NUMBER OF SORTED TWO-ELECTRON INTEGRALS:     511749.     BUFFER LENGTH:  32768
 NUMBER OF SEGMENTS:   1  SEGMENT LENGTH:     511749      RECORD LENGTH: 524288

 Memory used in sort:       1.07 MW

 SORT1 READ     2065561. AND WROTE      494012. INTEGRALS IN      2 RECORDS. CPU TIME:     0.02 SEC, REAL TIME:     0.04 SEC
 SORT2 READ     1485898. AND WROTE     1533840. INTEGRALS IN     36 RECORDS. CPU TIME:     0.02 SEC, REAL TIME:     0.02 SEC

 Node minimum:      510811.  Node maximum:      511749. integrals

 OPERATOR DM      FOR CENTER  0  COORDINATES:    0.000000    0.000000    0.000000


 **********************************************************************************************************************************
 DATASETS  * FILE   NREC   LENGTH (MB)   RECORD NAMES
              1      18       19.21       500      610      700      900      950      970     1000      129      960     1100   
                                          VAR    BASINP    GEOM    SYMINP    ZMAT    AOBASIS   BASIS     P2S    ABASIS      S 
                                         1400     1410     1200     1210     1080     1600     1650     1700   
                                           T        V       H0       H01     AOSYM     SMH    MOLCAS    OPER   

 PROGRAMS   *        TOTAL       INT
 CPU TIMES  *         0.39      0.25
 REAL TIME  *         1.03 SEC
 DISK USED  *        32.11 MB      
 GA USED    *         0.00 MB       (max)       0.00 MB       (current)
 **********************************************************************************************************************************


 PROGRAM * RHF-SCF (CLOSED SHELL)       Authors: W. Meyer, H.-J. Werner


 NUMBER OF ELECTRONS:      11+   11-
 CONVERGENCE THRESHOLDS:    1.00E-06 (Density)    1.00E-07 (Energy)
 MAX. NUMBER OF ITERATIONS:      300
 INTERPOLATION TYPE:            DIIS
 INTERPOLATION STEPS:              2 (START)      1 (STEP)
 LEVEL SHIFTS:                  0.00 (CLOSED)  0.00 (OPEN) 



 Orbital guess generated from atomic densities. Full valence occupancy:   12   3

 Molecular orbital dump at record        2100.2

 Initial occupancy:   9   2

 ITERATION    DDIFF          GRAD             ENERGY        2-EL.EN.            DIPOLE MOMENTS         DIIS   ORB.
    1      0.000D+00      0.000D+00      -183.39686004    232.363621    2.40392   -0.56070    0.00000    0    start
    2      0.000D+00      0.208D-01      -183.46636394    235.563507    0.01460    0.30904    0.00000    1    diag
    3      0.440D-01      0.207D-01      -183.61514057    235.565863    0.87739   -0.08765    0.00000    2    diag
    4      0.226D-01      0.300D-02      -183.62665853    235.291649    0.77886   -0.06586    0.00000    3    diag
    5      0.619D-02      0.141D-02      -183.62957941    235.508268    0.67135   -0.08104    0.00000    4    diag
    6      0.384D-02      0.503D-03      -183.62983471    235.549594    0.67036   -0.06602    0.00000    5    diag
    7      0.122D-02      0.324D-03      -183.62989085    235.521459    0.64629   -0.07228    0.00000    6    diag
    8      0.476D-03      0.848D-04      -183.62989983    235.526653    0.64674   -0.07292    0.00000    7    diag
    9      0.198D-03      0.355D-04      -183.62990314    235.527382    0.64677   -0.07319    0.00000    8    diag
   10      0.121D-03      0.228D-04      -183.62990529    235.527198    0.64728   -0.07362    0.00000    9    orth
   11      0.110D-03      0.154D-04      -183.62990692    235.527338    0.64788   -0.07401    0.00000    9    diag
   12      0.140D-03      0.766D-05      -183.62990730    235.527333    0.64834   -0.07427    0.00000    9    diag
   13      0.837D-04      0.297D-05      -183.62990734    235.527294    0.64842   -0.07430    0.00000    9    diag
   14      0.214D-04      0.144D-05      -183.62990734    235.527292    0.64847   -0.07432    0.00000    9    diag
   15      0.925D-05      0.471D-06      -183.62990734    235.527273    0.64848   -0.07431    0.00000    9    diag
   16      0.295D-05      0.122D-06      -183.62990734    235.527273    0.64848   -0.07431    0.00000    9    diag
   17      0.514D-06      0.509D-07      -183.62990734    235.527276    0.64848   -0.07431    0.00000    0    orth

 Final occupancy:   9   2

 !RHF STATE 1.1 Energy               -183.629907344053
 Nuclear energy                        51.85471553
 One-electron energy                 -353.24826086
 Two-electron energy                  117.76363799
 Virial quotient                       -1.00332922
 !RHF STATE 1.1 Dipole moment           0.64848229    -0.07431108     0.00000000
 Dipole moment /Debye                   1.64816961    -0.18886757     0.00000000

 Orbital energies:

         1.1          2.1          3.1          4.1          5.1          6.1          7.1          8.1          9.1         10.1
    -20.664908   -15.774512   -15.758021    -1.507981    -1.268187    -0.830935    -0.681444    -0.662175    -0.524868     0.014535

        11.1
      0.101035

         1.2          2.2          3.2          4.2
     -0.661372    -0.526089     0.093777     0.150921

 HOMO      9.1    -0.524868 =     -14.2824eV
 LUMO     10.1     0.014535 =       0.3955eV
 LUMO-HOMO         0.539403 =      14.6779eV


 **********************************************************************************************************************************
 DATASETS  * FILE   NREC   LENGTH (MB)   RECORD NAMES
              1      18       19.21       500      610      700      900      950      970     1000      129      960     1100   
                                          VAR    BASINP    GEOM    SYMINP    ZMAT    AOBASIS   BASIS     P2S    ABASIS      S 
                                         1400     1410     1200     1210     1080     1600     1650     1700   
                                           T        V       H0       H01     AOSYM     SMH    MOLCAS    OPER   

              2       4        2.84       700     1000      520     2100   
                                         GEOM     BASIS   MCVARS     RHF  

 PROGRAMS   *        TOTAL       RHF       INT
 CPU TIMES  *         0.51      0.12      0.25
 REAL TIME  *         1.19 SEC
 DISK USED  *        99.02 MB      
 SF USED    *         0.01 MB      
 GA USED    *         0.00 MB       (max)       0.00 MB       (current)
 **********************************************************************************************************************************


 PROGRAM * MULTI (Direct Multiconfiguration SCF)       Authors: P.J. Knowles, H.-J. Werner (1984)     S.T. Elbert (1988)


 Number of closed-shell orbitals:   5 (   5   0 )
 Number of active  orbitals:       10 (   7   3 )
 Number of external orbitals:      54 (  36  18 )

 State symmetry 1

 Number of electrons:    12    Spin symmetry=Singlet   Space symmetry=1
 Number of states:        1
 Number of CSFs:       7028   (22148 determinants, 44100 intermediate states)

 Molecular orbitals read from record     2100.2  Type=RHF/CANONICAL (state 1.1)

 Wavefunction dump at record             2140.2

 Convergence thresholds  0.10E-01 (gradient)  0.10E-05 (energy)  0.10E-02 (step length)

 Number of orbital rotations:      521   (    35 Core/Active    180 Core/Virtual   0 Active/Active    306 Active/Virtual)
 Total number of variables:      22669


 ITER. MIC  NCI  NEG     ENERGY(VAR)     ENERGY(PROJ)   ENERGY CHANGE     GRAD(0)  GRAD(ORB)   GRAD(CI)     STEP       TIME

   1   60   26    0    -183.67381884    -183.80388154   -0.13006269    0.06193664 0.00003633 0.02540311  0.14D+01      0.54
   2   43   39    0    -183.80964841    -183.81717400   -0.00752559    0.04255002 0.00000290 0.00268457  0.39D+00      1.39
   3   50   33    0    -183.81794883    -183.81824172   -0.00029289    0.01340204 0.00000001 0.00118746  0.72D-01      2.14
   4   50   32    0    -183.81825666    -183.81827797   -0.00002131    0.00209966 0.00000001 0.00106785  0.24D-01      2.85
   5   50   32    0    -183.81828448    -183.81830231   -0.00001782    0.00129561 0.00000001 0.00125203  0.26D-01      3.57
   6   48   32    0    -183.81831164    -183.81834234   -0.00003071    0.00163947 0.00000002 0.00149126  0.32D-01      4.31
   7   50   32    0    -183.81837374    -183.81845216   -0.00007841    0.00265870 0.00000001 0.00161904  0.40D-01      5.05
   8   51   32    0    -183.81856582    -183.81871387   -0.00014804    0.00466755 0.00000001 0.00126440  0.44D-01      5.78
   9   53   32    0    -183.81881687    -183.81889601   -0.00007914    0.00452164 0.00000000 0.00074309  0.36D-01      6.53
  10   54   28    0    -183.81891804    -183.81893396   -0.00001593    0.00219878 0.00000000 0.00038731  0.20D-01      7.18
  11   46   25    0    -183.81893563    -183.81893663   -0.00000100    0.00063867 0.00000005 0.00008952  0.47D-02      7.74
  12   40   20    0    -183.81893664    -183.81893664   -0.00000000    0.00003531 0.00000047 0.00002572  0.22D-03      8.19

 ** WVFN ****  CONVERGENCE REACHED, FINAL GRADIENT:  0.24D-05


 First order charge density matrix for state 1.1 saved on record  2140.2 (density set 1)

 Results for state 1.1
 =====================

 !MCSCF STATE 1.1 Energy             -183.818936644588
 Nuclear energy                        51.85471553
 Kinetic energy                       183.40686301
 One electron energy                 -353.45112180
 Two electron energy                  117.77746963
 Virial ratio                           2.00224677

 !MCSCF STATE 1.1 Dipole moment         0.76582297    -0.14117543     0.00000000
 Dipole moment /Debye                   1.94640036    -0.35880865     0.00000000


 Natural orbital dump at molpro section  2140.2    (Orbital set 2)



 **********************************************************************************************************************************
 DATASETS  * FILE   NREC   LENGTH (MB)   RECORD NAMES
              1      19       22.92       500      610      700      900      950      970     1000      129      960     1100   
                                          VAR    BASINP    GEOM    SYMINP    ZMAT    AOBASIS   BASIS     P2S    ABASIS      S 
                                         1400     1410     1200     1210     1080     1600     1650     1700     1380   
                                           T        V       H0       H01     AOSYM     SMH    MOLCAS    OPER     JKOP   

              2       5        5.45       700     1000      520     2100     2140   
                                         GEOM     BASIS   MCVARS     RHF     MCSCF   

 PROGRAMS   *        TOTAL    CASSCF       RHF       INT
 CPU TIMES  *         8.90      8.39      0.12      0.25
 REAL TIME  *        11.83 SEC
 DISK USED  *        99.02 MB      
 SF USED    *        29.09 MB      
 GA USED    *         0.00 MB       (max)       0.00 MB       (current)
 **********************************************************************************************************************************


 PROGRAM * RS2 (Multireference RS Perturbation Theory)     Authors: H.-J. Werner (1993), P. Celani (1998)


 Level shift= 0.20

 Convergence thresholds:  THRVAR = 1.00D-10  THRDEN = 1.00D-08

 Number of optimized states:  1  Roots:   1
 Number of reference states:  1  Roots:   1

 Reference symmetry:                   1   Singlet 
 Number of electrons:                 22
 Maximum number of shells:             7
 Maximum number of spin couplings:   132

 Reference space:     3493 conf     7028 CSFs
 N elec internal:    24795 conf    63360 CSFs
 N-1 el internal:    36100 conf   161700 CSFs
 N-2 el internal:    36132 conf   283696 CSFs

 Number of electrons in valence space:                     16
 Maximum number of open shell orbitals in reference space:  8
 Maximum number of open shell orbitals in internal spaces: 12


 Number of core orbitals:           3 (   3   0 )
 Number of closed-shell orbitals:   2 (   2   0 )
 Number of active  orbitals:       10 (   7   3 )
 Number of external orbitals:      54 (  36  18 )

 Molecular orbitals read from record     2140.2  Type=MCSCF/NATURAL (state 1.1)

 Coulomb and exchange operators available. No transformation done.

 Number of p-space configurations:   2

 Reference wavefunction optimized for reference space (refopt=1)

 State     Reference Energy 
   1        -183.81893664

 Number of blocks in overlap matrix:     4   Smallest eigenvalue:  0.13D-01
 Number of N-2 electron functions:     144
 Number of N-1 electron functions:  161700

 Number of internal configurations:                32028
 Number of singly external configurations:       4373208
 Number of doubly external configurations:        108216
 Total number of contracted configurations:      4513452
 Total number of uncontracted configurations:  216814344

 Weight factors for SA-density in H0:    1.000000

 FIMAX=  0.34D+00  FXMAX=  0.96D-07  DIAG=  F  F  NOREF=1  NOINT=0  IHPPD=2

 Nuclear energy:                      51.85471553
 Core energy:                       -173.22662769
 Zeroth-order valence energy:        -12.84387739
 Zeroth-order total energy:         -134.21578955
 First-order energy:                 -49.60314709

 Using uncontracted singles

 Diagonal Coupling coefficients finished.               Storage:  575997 words, CPU-Time:      0.00 seconds.
 Energy denominators for pairs finished in 0 passes.    Storage:  568962 words, CPU-time:      0.00 seconds.

 A level shift of 0.20 is applied.

  ITER. STATE  ROOT     SQ.NORM     CORR.ENERGY   TOTAL ENERGY   ENERGY CHANGE       DEN1      VAR(S)    VAR(P)      TIME
    1     1     1     1.03218691    -0.00643738  -183.82537403    -0.00643738    -0.29289521  0.32D-01  0.43D-01     8.16
    2     1     1     1.08010811    -0.31757826  -184.13651490    -0.31114087    -0.00286298  0.41D-03  0.19D-03    13.54
    3     1     1     1.08177785    -0.32007743  -184.13901408    -0.00249918    -0.00153182  0.17D-04  0.34D-05    18.86
    4     1     1     1.08205686    -0.32019948  -184.13913613    -0.00012205    -0.00008397  0.81D-06  0.16D-06    24.19
    5     1     1     1.08212097    -0.32021545  -184.13915210    -0.00001597    -0.00004425  0.53D-07  0.80D-08    29.48
    6     1     1     1.08213227    -0.32021791  -184.13915455    -0.00000246    -0.00000402  0.39D-08  0.52D-09    34.77
    7     1     1     1.08213546    -0.32021855  -184.13915520    -0.00000065    -0.00000198  0.32D-09  0.38D-10    40.08
    8     1     1     1.08213610    -0.32021868  -184.13915533    -0.00000013    -0.00000023  0.28D-10  0.31D-11    45.28
    9     1     1     1.08213630    -0.32021872  -184.13915537    -0.00000004    -0.00000011  0.26D-11  0.27D-12    50.44
   10     1     1     1.08213634    -0.32021873  -184.13915537    -0.00000001    -0.00000002  0.26D-12  0.24D-13    55.65
   11     1     1     1.08213636    -0.32021873  -184.13915538    -0.00000000    -0.00000001  0.27D-13  0.24D-14    60.83

 Energies without level shift correction:

   11     1     1     1.08213636    -0.30379146  -184.12272810

 Energy contributions for state 1.1:
 ===================================

            Energy contr.      SQ.Norm of FOWF
 Space I     -0.00664280          0.00345527
 Space S     -0.11095770          0.03536044
 Space P     -0.18619095          0.04332065


 =====================================
 Analysis of CPU times by interactions
 =====================================

       I      S      P

 I   2.9%
 S  21.5%  20.5%
 P   1.0%  39.2%   0.0%

 Initialization:   8.3%
 Other:            6.7%

 Total CPU:       60.8 seconds
 =====================================


 Initialize record     7000.1
 Now solve CP-CASPT2 equations

 A level shift of 0.20 is applied.

  ITER. STATE  ROOT     SQ.NORM     CORR.ENERGY   TOTAL ENERGY   ENERGY CHANGE       DEN1      VAR(S)    VAR(P)      TIME
    1     1     1     1.04576199    -0.01579520  -183.83473185    -0.01579520    -0.35791514  0.42D-01  0.53D-01    73.47
    2     1     1     1.10257775    -0.39132962  -184.21026626    -0.37553442    -0.00423156  0.56D-03  0.26D-03    78.85
    3     1     1     1.10500462    -0.39473227  -184.21366891    -0.00340265    -0.00203558  0.24D-04  0.48D-05    84.22
    4     1     1     1.10540074    -0.39490441  -184.21384106    -0.00017214    -0.00012868  0.12D-05  0.23D-06    89.52
    5     1     1     1.10549534    -0.39492787  -184.21386452    -0.00002346    -0.00006107  0.78D-07  0.12D-07    94.90
    6     1     1     1.10551227    -0.39493154  -184.21386818    -0.00000367    -0.00000626  0.58D-08  0.78D-09   100.10
    7     1     1     1.10551704    -0.39493251  -184.21386916    -0.00000097    -0.00000280  0.48D-09  0.57D-10   105.40
    8     1     1     1.10551802    -0.39493271  -184.21386936    -0.00000020    -0.00000037  0.43D-10  0.46D-11   110.78
    9     1     1     1.10551831    -0.39493277  -184.21386942    -0.00000006    -0.00000017  0.40D-11  0.41D-12   115.97
   10     1     1     1.10551839    -0.39493279  -184.21386943    -0.00000001    -0.00000002  0.40D-12  0.37D-13   121.19
   11     1     1     1.10551841    -0.39493279  -184.21386943    -0.00000000    -0.00000001  0.41D-13  0.36D-14   126.38
   12     1     1     1.10551842    -0.39493279  -184.21386943    -0.00000000    -0.00000000  0.45D-14  0.38D-15   131.56

 Energies without level shift correction:

   12     1     1     1.10551842    -0.37382911  -184.19276575

 Energy contributions for state 1.1:
 ===================================

            Energy contr.      SQ.Norm of FOWF
 Space I     -0.00970886          0.00519611
 Space S     -0.14142309          0.04703129
 Space P     -0.22269715          0.05329102


 =====================================
 Analysis of CPU times by interactions
 =====================================

       I      S      P

 I   1.3%
 S  20.3%  19.9%
 P   0.4%  38.1%   0.0%

 Initialization:  44.1%
 Other:          -24.2%

 Total CPU:      131.6 seconds
 =====================================



 Reference coefficients greater than 0.0500000
 =============================================
 222222000220           0.9453361
 222222000202          -0.1272246
 22222/\002/\          -0.1215856
 222220200220          -0.1185763
 2222/20\0/2\           0.0701050
 222202020220          -0.0696920
 222/2200\2/\           0.0560064
 222202/\0220          -0.0551039
 22222//002\\          -0.0543553



 RESULTS FOR STATE 1.1
 =====================

 Coefficient of reference function:   C(0) = 1.00000000 (fixed)   1.00000000 (relaxed)

 Energy contributions of configuration classes

 CLASS          SQ.NORM        ECORR1        ECORR2
 +++++++++++++++++++++++++++++++++++++++++++++++++++
 Internals    0.00519611   -0.00801614    0.27318493
 Singles      0.04703129   -0.12513669   -0.22833278
 Pairs        0.05329102   -0.20349316   -0.36507088
 Total        1.10551842   -0.33664600   -0.32021873
 +++++++++++++++++++++++++++++++++++++++++++++++++++


 Reference energy                    -183.81893664
 Nuclear energy                        51.85471553
 Kinetic energy                       183.63794844
 One electron energy                 -353.22163273
 Two electron energy                  117.22776183
 Virial quotient                       -1.00272932
 Correlation energy                    -0.32021873
 !RSPT2 STATE 1.1 Energy             -184.139155376363

 Properties without orbital relaxation:

 !RSPT2 STATE 1.1 Dipole moment         0.76907651    -0.13984007     0.00000000
 Dipole moment /Debye                   1.95466948    -0.35541472     0.00000000


 **********************************************************************************************************************************


 PROGRAM * MULTI (Direct Multiconfiguration SCF)       Authors: P.J. Knowles, H.-J. Werner (1984)     S.T. Elbert (1988)


 Number of closed-shell orbitals:   5 (   5   0 )
 Number of active  orbitals:       10 (   7   3 )
 Number of external orbitals:      54 (  36  18 )

 State symmetry 1

 Number of electrons:    12    Spin symmetry=Singlet   Space symmetry=1
 Number of states:        1
 Number of CSFs:       7028
 
 Maximum number of shells:             7
 Maximum number of spin couplings:   132

 Storage for configuration lists   24068, coupling coefficients 301503, address lists 255468

 Molecular orbitals read from record     2140.2  Type=MCSCF/NATURAL (state 1.1)

 Wavefunction dump at record             3140.4

 Convergence thresholds  0.10E-04 (gradient)  0.10E-07 (energy)  0.10E-02 (step length)

 Eigenvalues of redundancy matrix
   1- 10   -0.000000   -0.000000   -0.000000   -0.000000   -0.000000   -0.000000   -0.000000   -0.000000   -0.000000   -0.000000
  11- 20   -0.000000   -0.000000    0.000000    0.000000    0.000000    0.000000    0.000000    0.000000    0.000000    0.000000
  21- 24    0.000000    0.000000    0.000000    0.000000

 Number of orbital rotations:      521   (    35 Core/Active    180 Core/Virtual   0 Active/Active    306 Active/Virtual)
 Total number of variables:       7549


 ITER. MIC  NCI  NEG     ENERGY(VAR)     ENERGY(PROJ)   ENERGY CHANGE     GRAD(0)  GRAD(ORB)   GRAD(CI)     STEP       TIME

   1   40   21    0    -183.81893664    -183.81893664    0.00000000    0.00000248 0.00000000 0.00000013  0.00D+00      0.76

 Warning: orbitals not optimized!

 Solving MCSCF z-vector equations for state  1.1, requested accuracy=      0.10D-05
 Convergence reached in  24 iterations ( 24 expansion vectors), accuracy=  0.69D-06

 Properties including orbital relaxation:

 !RSPT2 dipole moments (ED):            0.82991040    -0.12509102     0.00000000

 RSPT2 Gradient info saved on record         5200.1

 CPU-time for rhs:           20.09 sec
 CPU-time for cpmcscf:        2.50 sec
 CPU-time for densities:      0.00 sec


 **********************************************************************************************************************************
 DATASETS  * FILE   NREC   LENGTH (MB)   RECORD NAMES
              1      25       97.21       500      610      700      900      950      970     1000      129      960     1100   
                                          VAR    BASINP    GEOM    SYMINP    ZMAT    AOBASIS   BASIS     P2S    ABASIS      S 
                                         1400     1410     1200     1210     1080     1600     1650     1700     1380     7000   
                                           T        V       H0       H01     AOSYM     SMH    MOLCAS    OPER     JKOP   
                                         7001     5200     5210     7009     7005   
                                                 RS2GRAD  RS2GRAD    

              2       5        5.45       700     1000      520     2100     2140   
                                         GEOM     BASIS   MCVARS     RHF     MCSCF   

 PROGRAMS   *        TOTAL       RS2    CASSCF       RHF       INT
 CPU TIMES  *       181.96    173.06      8.39      0.12      0.25
 REAL TIME  *       191.03 SEC
 DISK USED  *        99.02 MB      
 SF USED    *       354.15 MB      
 GA USED    *         0.00 MB       (max)       0.00 MB       (current)
 **********************************************************************************************************************************
 
 STEP  1 RHF-SCF        O.K.    
 STEP  2 CASSCF         O.K.    
 STEP  3 RS2            O.K.    
 SETTING MOLPRO_ENERGY  =      -184.13915538  AU                              
 MOLPRO_ENERGY    =       -0.184139155376363E+03 AU


 PROGRAM * ALASKA (Gradient of the energy)     Author: R. Lindh


 RSPT2 Gradient info restored from record    5200.1

 Number of core orbitals:           3 (   3   0 )
 Number of closed-shell orbitals:   2 (   2   0 )
 Number of active  orbitals:       10 (   7   3 )
 Number of external orbitals:      54 (  36  18 )

 Integral thresholds in T2TRAN:            1.0D-10 (PROD)

 Available memory for Transformation:1277797029 words
 Memory needed for incore algorithm:     402848 words
 Minimum memory needed:                  148238 words

 Memory used for transformation:           0.40 MW
 Available memory for gradients:        1279.39 MW

 CPU for transformation:                   0.01 sec
 CPU for integrals and gradient:           1.26 sec
 Total CPU:                                1.28 sec

 Prescreening statistics:
 ========================

 Total number of shell quadruplets:        2.27D+02
 Number of shell quadruplets processed:    2.27D+02 (100.00%)

 RSPT2 GRADIENT FOR STATE 1.1

 Atom          dE/dx               dE/dy               dE/dz

   1         0.077831908        -0.046810676         0.000000000
   2        -0.001715350         0.017032976         0.000000000
   3        -0.076116558         0.029777700         0.000000000

 Nuclear force contribution to virial =         0.266701049


 **********************************************************************************************************************************
 DATASETS  * FILE   NREC   LENGTH (MB)   RECORD NAMES
              1      25       97.21       500      610      700      900      950      970     1000      129      960     1100   
                                          VAR    BASINP    GEOM    SYMINP    ZMAT    AOBASIS   BASIS     P2S    ABASIS      S 
                                         1400     1410     1200     1210     1080     1600     1650     1700     1380     7000   
                                           T        V       H0       H01     AOSYM     SMH    MOLCAS    OPER     JKOP   
                                         7001     5200     5210     7009     7005   
                                                 RS2GRAD  RS2GRAD    

              2       5        5.45       700     1000      520     2100     2140   
                                         GEOM     BASIS   MCVARS     RHF     MCSCF   

 PROGRAMS   *        TOTAL     FORCE       RS2    CASSCF       RHF       INT
 CPU TIMES  *       184.22      2.26    173.06      8.39      0.12      0.25
 REAL TIME  *       194.78 SEC
 DISK USED  *        99.02 MB      
 SF USED    *       354.15 MB      
 GA USED    *         0.00 MB       (max)       0.00 MB       (current)
 **********************************************************************************************************************************

 *** MOLGRAD
                                                                                                                                                                                                                                                                

     NN          GRADX             GRADY        GRADZ
    1.0    7.78319079D-02   -4.68106761D-02   0.0D+00
    2.0   -1.71534980D-03    1.70329763D-02   0.0D+00
    3.0   -7.61165581D-02    2.97776999D-02   0.0D+00
                                                  

 RS2/aug-cc-pVDZ energy=   -184.139155376363

        RS2             CASSCF          RHF-SCF 
   -184.13915538   -183.81893664   -183.62990734
 **********************************************************************************************************************************
 Molpro calculation terminated
 Variable memory released
