
 Primary working directories    : /scratch/kmoore
 Secondary working directories  : /scratch/kmoore
 Wavefunction directory         : /home/kmoore/wfu/
 Main file repository           : /scratch/kmoore/

 SHA1      : f86d681fdec979508940bfbbc93fd7db66630888
 NAME      : 2015.1.24
 ARCHNAME  : linux/x86_64
 FC        : /blues/gpfs/home/software/spack-0.10.1/opt/spack/linux-centos7-x86_64/intel-17.0.4/intel-mpi-2017.3-dfphq6kavje2olnichisvjjndtridrok/compilers_and_libraries_2017.4.196/linux/mpi/intel64/bin/mpiifort
 BLASLIB   : -L/blues/gpfs/home/software/spack-0.10.1/opt/spack/linux-centos7-x86_64/intel-17.0.4/intel-mkl-2017.3.196-jyjmyutcol3veyt4bazftyqkxxzmfd7o/pkg/compilers_and_libraries_2017.4.196/linux/mkl/lib/intel64 -lmkl_intel_ilp64 -lmkl_intel_thread -lmkl_core
 id        : anlgov

 Nodes     nprocs
 b460         3
 Number of processes for MPI-2 version of Molpro:   nprocs(total)=    4   nprocs(compute)=    3   nprocs(helper)=    1

 Using customized tuning parameters: mindgm=7; mindgv=16; mindgc=1; mindgr=1; noblas=0; minvec=7
 default implementation of scratch files=sf  

                                                                                 !
 memory,1280,m
                                                                                 ! wavefunction template
 angstrom
 geometry = {
            3
  ANT Direct Dynamics Calculation
 N           0.2556601528       -0.2897161798        0.0000000000
 N           1.2909818610        0.1668241011        0.0000000000
 O          -1.3671240138        0.1010110787        0.0000000000
 }
 set,spin=0
 set,charge=0
 basis=aug-cc-pvdz
 nn(1)=1
 nn(2)=2
 nn(3)=3
 {rhf,,maxit=300}
 {casscf,maxit=40
 closed,5
 wf,22,1,0,0}
 {rs2,shift=0.20}
 
 status,all,crash
 
 molpro_energy=energy
 show[1,e25.15],molpro_energy
 {force,varsav}
 text,MOLGRAD
 table,nn,gradx,grady,gradz
 ftyp,f,d,d,d

 Variables initialized (889), CPU time= 0.01 sec
 Commands  initialized (702), CPU time= 0.01 sec, 572 directives.
 Default parameters read. Elapsed time= 0.07 sec

 Checking input...
 Passed
1


                                         ***  PROGRAM SYSTEM MOLPRO  ***
                                       Copyright, TTI GmbH Stuttgart, 2015
                                    Version 2015.1 linked Sep 21 2017 09:51:13


 **********************************************************************************************************************************
 LABEL *                                                                                 
  64 bit mpp version                                                                     DATE: 17-Aug-21          TIME: 09:59:30  
 **********************************************************************************************************************************

 SHA1:             f86d681fdec979508940bfbbc93fd7db66630888
 **********************************************************************************************************************************
 ZUNIT=ANG
 

Geometry recognized as XYZ

 SETTING SPIN           =     0.00000000D+00                                  
 SETTING CHARGE         =     0.00000000D+00                                  

 Variable memory set to 1280000000 words,  buffer space   230000 words

 SETTING BASIS          =    AUG-CC-PVDZ
 SETTING NN(1)          =         1.00000000                                  
 SETTING NN(2)          =         2.00000000                                  
 SETTING NN(3)          =         3.00000000                                  


 Recomputing integrals since basis changed


 Using spherical harmonics

 Library entry N      S aug-cc-pVDZ          selected for orbital group  1
 Library entry N      P aug-cc-pVDZ          selected for orbital group  1
 Library entry N      D aug-cc-pVDZ          selected for orbital group  1
 Library entry O      S aug-cc-pVDZ          selected for orbital group  2
 Library entry O      P aug-cc-pVDZ          selected for orbital group  2
 Library entry O      D aug-cc-pVDZ          selected for orbital group  2


 PROGRAM * SEWARD (Integral evaluation for generally contracted gaussian basis sets)     Author: Roland Lindh, 1990

 Geometry written to block  1 of record 700


 Point group  Cs  



 ATOMIC COORDINATES

 NR  ATOM    CHARGE       X              Y              Z

   1  N       7.00    0.483127670   -0.547484234    0.000000000
   2  N       7.00    2.439602149    0.315251862    0.000000000
   3  O       8.00   -2.583489964    0.190883274    0.000000000

 Bond lengths in Bohr (Angstrom)

 1-2  2.138248339  1-3  3.154255901
     ( 1.131512292)     ( 1.669160340)

 Bond angles

  2-1-3  142.66645760

 NUCLEAR CHARGE:                   22
 NUMBER OF PRIMITIVE AOS:         111
 NUMBER OF SYMMETRY AOS:          105
 NUMBER OF CONTRACTIONS:           69   (  48A'  +  21A"  )
 NUMBER OF CORE ORBITALS:           3   (   3A'  +   0A"  )
 NUMBER OF VALENCE ORBITALS:       12   (   9A'  +   3A"  )


 NUCLEAR REPULSION ENERGY   51.81484059

 Eigenvalues of metric

         1 0.133E-03 0.570E-03 0.265E-02 0.465E-02 0.106E-01 0.184E-01 0.325E-01 0.376E-01
         2 0.104E-01 0.372E-01 0.820E-01 0.161E+00 0.173E+00 0.254E+00 0.328E+00 0.361E+00


 Contracted 2-electron integrals neglected if value below      1.0D-11
 AO integral compression algorithm  1   Integral accuracy      1.0D-11

     9.699 MB (compressed) written to integral file ( 56.5%)

     Node minimum: 3.146 MB, node maximum: 3.408 MB


 NUMBER OF SORTED TWO-ELECTRON INTEGRALS:     511749.     BUFFER LENGTH:  32768
 NUMBER OF SEGMENTS:   1  SEGMENT LENGTH:     511749      RECORD LENGTH: 524288

 Memory used in sort:       1.07 MW

 SORT1 READ     2065561. AND WROTE      494011. INTEGRALS IN      2 RECORDS. CPU TIME:     0.03 SEC, REAL TIME:     0.04 SEC
 SORT2 READ     1485901. AND WROTE     1533840. INTEGRALS IN     36 RECORDS. CPU TIME:     0.02 SEC, REAL TIME:     0.02 SEC

 Node minimum:      510811.  Node maximum:      511749. integrals

 OPERATOR DM      FOR CENTER  0  COORDINATES:    0.000000    0.000000    0.000000


 **********************************************************************************************************************************
 DATASETS  * FILE   NREC   LENGTH (MB)   RECORD NAMES
              1      18       19.21       500      610      700      900      950      970     1000      129      960     1100   
                                          VAR    BASINP    GEOM    SYMINP    ZMAT    AOBASIS   BASIS     P2S    ABASIS      S 
                                         1400     1410     1200     1210     1080     1600     1650     1700   
                                           T        V       H0       H01     AOSYM     SMH    MOLCAS    OPER   

 PROGRAMS   *        TOTAL       INT
 CPU TIMES  *         0.37      0.24
 REAL TIME  *         0.96 SEC
 DISK USED  *        32.11 MB      
 GA USED    *         0.00 MB       (max)       0.00 MB       (current)
 **********************************************************************************************************************************


 PROGRAM * RHF-SCF (CLOSED SHELL)       Authors: W. Meyer, H.-J. Werner


 NUMBER OF ELECTRONS:      11+   11-
 CONVERGENCE THRESHOLDS:    1.00E-06 (Density)    1.00E-07 (Energy)
 MAX. NUMBER OF ITERATIONS:      300
 INTERPOLATION TYPE:            DIIS
 INTERPOLATION STEPS:              2 (START)      1 (STEP)
 LEVEL SHIFTS:                  0.00 (CLOSED)  0.00 (OPEN) 



 Orbital guess generated from atomic densities. Full valence occupancy:   12   3

 Molecular orbital dump at record        2100.2

 Initial occupancy:   9   2

 ITERATION    DDIFF          GRAD             ENERGY        2-EL.EN.            DIPOLE MOMENTS         DIIS   ORB.
    1      0.000D+00      0.000D+00      -183.39620183    232.283815    2.40797   -0.55745    0.00000    0    start
    2      0.000D+00      0.208D-01      -183.46537950    235.486629    0.00835    0.30842    0.00000    1    diag
    3      0.440D-01      0.208D-01      -183.61491242    235.488801    0.87713   -0.08678    0.00000    2    diag
    4      0.226D-01      0.300D-02      -183.62648611    235.213793    0.77776   -0.06536    0.00000    3    diag
    5      0.621D-02      0.141D-02      -183.62941893    235.432028    0.67056   -0.08023    0.00000    4    diag
    6      0.385D-02      0.499D-03      -183.62967364    235.472292    0.66907   -0.06539    0.00000    5    diag
    7      0.123D-02      0.323D-03      -183.62972871    235.444375    0.64517   -0.07166    0.00000    6    diag
    8      0.470D-03      0.849D-04      -183.62973766    235.449625    0.64566   -0.07228    0.00000    7    diag
    9      0.198D-03      0.355D-04      -183.62974095    235.450352    0.64569   -0.07256    0.00000    8    diag
   10      0.121D-03      0.227D-04      -183.62974309    235.450167    0.64620   -0.07299    0.00000    9    orth
   11      0.109D-03      0.154D-04      -183.62974470    235.450309    0.64679   -0.07337    0.00000    9    diag
   12      0.139D-03      0.767D-05      -183.62974509    235.450304    0.64724   -0.07363    0.00000    9    diag
   13      0.840D-04      0.296D-05      -183.62974512    235.450265    0.64733   -0.07366    0.00000    9    diag
   14      0.214D-04      0.144D-05      -183.62974513    235.450264    0.64737   -0.07368    0.00000    9    diag
   15      0.923D-05      0.473D-06      -183.62974513    235.450244    0.64738   -0.07367    0.00000    9    diag
   16      0.298D-05      0.122D-06      -183.62974513    235.450245    0.64738   -0.07368    0.00000    9    diag
   17      0.519D-06      0.520D-07      -183.62974513    235.450248    0.64739   -0.07367    0.00000    0    orth

 Final occupancy:   9   2

 !RHF STATE 1.1 Energy               -183.629745132145
 Nuclear energy                        51.81484059
 One-electron energy                 -353.16970957
 Two-electron energy                  117.72512385
 Virial quotient                       -1.00335559
 !RHF STATE 1.1 Dipole moment           0.64738673    -0.07367330     0.00000000
 Dipole moment /Debye                   1.64538518    -0.18724658     0.00000000

 Orbital energies:

         1.1          2.1          3.1          4.1          5.1          6.1          7.1          8.1          9.1         10.1
    -20.665089   -15.774635   -15.758171    -1.507330    -1.268121    -0.831117    -0.681308    -0.661789    -0.524993     0.014688

        11.1
      0.101033

         1.2          2.2          3.2          4.2
     -0.660972    -0.526207     0.093554     0.150920

 HOMO      9.1    -0.524993 =     -14.2858eV
 LUMO     10.1     0.014688 =       0.3997eV
 LUMO-HOMO         0.539681 =      14.6855eV


 **********************************************************************************************************************************
 DATASETS  * FILE   NREC   LENGTH (MB)   RECORD NAMES
              1      18       19.21       500      610      700      900      950      970     1000      129      960     1100   
                                          VAR    BASINP    GEOM    SYMINP    ZMAT    AOBASIS   BASIS     P2S    ABASIS      S 
                                         1400     1410     1200     1210     1080     1600     1650     1700   
                                           T        V       H0       H01     AOSYM     SMH    MOLCAS    OPER   

              2       4        2.84       700     1000      520     2100   
                                         GEOM     BASIS   MCVARS     RHF  

 PROGRAMS   *        TOTAL       RHF       INT
 CPU TIMES  *         0.50      0.13      0.24
 REAL TIME  *         1.12 SEC
 DISK USED  *        99.02 MB      
 SF USED    *         0.01 MB      
 GA USED    *         0.00 MB       (max)       0.00 MB       (current)
 **********************************************************************************************************************************


 PROGRAM * MULTI (Direct Multiconfiguration SCF)       Authors: P.J. Knowles, H.-J. Werner (1984)     S.T. Elbert (1988)


 Number of closed-shell orbitals:   5 (   5   0 )
 Number of active  orbitals:       10 (   7   3 )
 Number of external orbitals:      54 (  36  18 )

 State symmetry 1

 Number of electrons:    12    Spin symmetry=Singlet   Space symmetry=1
 Number of states:        1
 Number of CSFs:       7028   (22148 determinants, 44100 intermediate states)

 Molecular orbitals read from record     2100.2  Type=RHF/CANONICAL (state 1.1)

 Wavefunction dump at record             2140.2

 Convergence thresholds  0.10E-01 (gradient)  0.10E-05 (energy)  0.10E-02 (step length)

 Number of orbital rotations:      521   (    35 Core/Active    180 Core/Virtual   0 Active/Active    306 Active/Virtual)
 Total number of variables:      22669


 ITER. MIC  NCI  NEG     ENERGY(VAR)     ENERGY(PROJ)   ENERGY CHANGE     GRAD(0)  GRAD(ORB)   GRAD(CI)     STEP       TIME

   1   60   26    0    -183.67381629    -183.80388966   -0.13007337    0.06206766 0.00005199 0.02535171  0.14D+01      0.54
   2   43   39    0    -183.80966076    -183.81715462   -0.00749386    0.04253291 0.00000287 0.00267612  0.39D+00      1.38
   3   50   33    0    -183.81792132    -183.81821032   -0.00028900    0.01331679 0.00000001 0.00118066  0.71D-01      2.13
   4   50   32    0    -183.81822485    -183.81824558   -0.00002073    0.00207849 0.00000001 0.00105591  0.24D-01      2.87
   5   50   32    0    -183.81825176    -183.81826875   -0.00001699    0.00126337 0.00000001 0.00123476  0.26D-01      3.62
   6   48   32    0    -183.81827733    -183.81830615   -0.00002882    0.00158125 0.00000001 0.00147771  0.32D-01      4.36
   7   50   32    0    -183.81833460    -183.81840826   -0.00007366    0.00255265 0.00000001 0.00162534  0.40D-01      5.09
   8   51   32    0    -183.81851653    -183.81866490   -0.00014837    0.00456538 0.00000001 0.00130340  0.44D-01      5.80
   9   53   32    0    -183.81877530    -183.81886106   -0.00008576    0.00466408 0.00000000 0.00077016  0.37D-01      6.53
  10   53   29    0    -183.81888622    -183.81890445   -0.00001823    0.00234105 0.00000000 0.00040943  0.21D-01      7.18
  11   46   25    0    -183.81890651    -183.81890778   -0.00000127    0.00071073 0.00000006 0.00010475  0.54D-02      7.73
  12   40   20    0    -183.81890780    -183.81890781   -0.00000001    0.00004709 0.00000060 0.00003328  0.28D-03      8.16

 ** WVFN ****  CONVERGENCE REACHED, FINAL GRADIENT:  0.31D-05


 First order charge density matrix for state 1.1 saved on record  2140.2 (density set 1)

 Results for state 1.1
 =====================

 !MCSCF STATE 1.1 Energy             -183.818907807769
 Nuclear energy                        51.81484059
 Kinetic energy                       183.40246017
 One electron energy                 -353.37302386
 Two electron energy                  117.73927546
 Virial ratio                           2.00227068

 !MCSCF STATE 1.1 Dipole moment         0.76519819    -0.14016893     0.00000000
 Dipole moment /Debye                   1.94481242    -0.35625055     0.00000000


 Natural orbital dump at molpro section  2140.2    (Orbital set 2)



 **********************************************************************************************************************************
 DATASETS  * FILE   NREC   LENGTH (MB)   RECORD NAMES
              1      19       22.92       500      610      700      900      950      970     1000      129      960     1100   
                                          VAR    BASINP    GEOM    SYMINP    ZMAT    AOBASIS   BASIS     P2S    ABASIS      S 
                                         1400     1410     1200     1210     1080     1600     1650     1700     1380   
                                           T        V       H0       H01     AOSYM     SMH    MOLCAS    OPER     JKOP   

              2       5        5.45       700     1000      520     2100     2140   
                                         GEOM     BASIS   MCVARS     RHF     MCSCF   

 PROGRAMS   *        TOTAL    CASSCF       RHF       INT
 CPU TIMES  *         8.85      8.34      0.13      0.24
 REAL TIME  *        11.73 SEC
 DISK USED  *        99.02 MB      
 SF USED    *        29.09 MB      
 GA USED    *         0.00 MB       (max)       0.00 MB       (current)
 **********************************************************************************************************************************


 PROGRAM * RS2 (Multireference RS Perturbation Theory)     Authors: H.-J. Werner (1993), P. Celani (1998)


 Level shift= 0.20

 Convergence thresholds:  THRVAR = 1.00D-10  THRDEN = 1.00D-08

 Number of optimized states:  1  Roots:   1
 Number of reference states:  1  Roots:   1

 Reference symmetry:                   1   Singlet 
 Number of electrons:                 22
 Maximum number of shells:             7
 Maximum number of spin couplings:   132

 Reference space:     3493 conf     7028 CSFs
 N elec internal:    24795 conf    63360 CSFs
 N-1 el internal:    36100 conf   161700 CSFs
 N-2 el internal:    36132 conf   283696 CSFs

 Number of electrons in valence space:                     16
 Maximum number of open shell orbitals in reference space:  8
 Maximum number of open shell orbitals in internal spaces: 12


 Number of core orbitals:           3 (   3   0 )
 Number of closed-shell orbitals:   2 (   2   0 )
 Number of active  orbitals:       10 (   7   3 )
 Number of external orbitals:      54 (  36  18 )

 Molecular orbitals read from record     2140.2  Type=MCSCF/NATURAL (state 1.1)

 Coulomb and exchange operators available. No transformation done.

 Number of p-space configurations:   2

 Reference wavefunction optimized for reference space (refopt=1)

 State     Reference Energy 
   1        -183.81890781

 Number of blocks in overlap matrix:     4   Smallest eigenvalue:  0.13D-01
 Number of N-2 electron functions:     144
 Number of N-1 electron functions:  161700

 Number of internal configurations:                32028
 Number of singly external configurations:       4373208
 Number of doubly external configurations:        108216
 Total number of contracted configurations:      4513452
 Total number of uncontracted configurations:  216814344

 Weight factors for SA-density in H0:    1.000000

 FIMAX=  0.34D+00  FXMAX=  0.97D-07  DIAG=  F  F  NOREF=1  NOINT=0  IHPPD=2

 Nuclear energy:                      51.81484059
 Core energy:                       -173.20772701
 Zeroth-order valence energy:        -12.84100038
 Zeroth-order total energy:         -134.23388680
 First-order energy:                 -49.58502101

 Using uncontracted singles

 Diagonal Coupling coefficients finished.               Storage:  575997 words, CPU-Time:      0.00 seconds.
 Energy denominators for pairs finished in 0 passes.    Storage:  568962 words, CPU-time:      0.00 seconds.

 A level shift of 0.20 is applied.

  ITER. STATE  ROOT     SQ.NORM     CORR.ENERGY   TOTAL ENERGY   ENERGY CHANGE       DEN1      VAR(S)    VAR(P)      TIME
    1     1     1     1.03219606    -0.00643921  -183.82534702    -0.00643921    -0.29287589  0.32D-01  0.43D-01     8.18
    2     1     1     1.08012022    -0.31756239  -184.13647020    -0.31112318    -0.00286038  0.41D-03  0.19D-03    13.58
    3     1     1     1.08178895    -0.32005889  -184.13896670    -0.00249650    -0.00152973  0.17D-04  0.34D-05    18.96
    4     1     1     1.08206778    -0.32018075  -184.13908856    -0.00012187    -0.00008380  0.81D-06  0.16D-06    24.28
    5     1     1     1.08213178    -0.32019669  -184.13910450    -0.00001594    -0.00004415  0.53D-07  0.80D-08    29.49
    6     1     1     1.08214306    -0.32019914  -184.13910695    -0.00000245    -0.00000401  0.39D-08  0.52D-09    34.85
    7     1     1     1.08214624    -0.32019979  -184.13910759    -0.00000064    -0.00000197  0.32D-09  0.38D-10    40.05
    8     1     1     1.08214688    -0.32019992  -184.13910772    -0.00000013    -0.00000023  0.28D-10  0.30D-11    45.23
    9     1     1     1.08214707    -0.32019996  -184.13910776    -0.00000004    -0.00000011  0.26D-11  0.26D-12    50.43
   10     1     1     1.08214712    -0.32019996  -184.13910777    -0.00000001    -0.00000002  0.26D-12  0.24D-13    55.65
   11     1     1     1.08214714    -0.32019997  -184.13910777    -0.00000000    -0.00000001  0.27D-13  0.23D-14    60.86

 Energies without level shift correction:

   11     1     1     1.08214714    -0.30377054  -184.12267834

 Energy contributions for state 1.1:
 ===================================

            Energy contr.      SQ.Norm of FOWF
 Space I     -0.00664633          0.00345939
 Space S     -0.11095845          0.03536752
 Space P     -0.18616575          0.04332023


 =====================================
 Analysis of CPU times by interactions
 =====================================

       I      S      P

 I   2.9%
 S  21.4%  20.4%
 P   1.0%  39.4%   0.0%

 Initialization:   8.4%
 Other:            6.6%

 Total CPU:       60.9 seconds
 =====================================


 Initialize record     7000.1
 Now solve CP-CASPT2 equations

 A level shift of 0.20 is applied.

  ITER. STATE  ROOT     SQ.NORM     CORR.ENERGY   TOTAL ENERGY   ENERGY CHANGE       DEN1      VAR(S)    VAR(P)      TIME
    1     1     1     1.04578094    -0.01580252  -183.83471032    -0.01580252    -0.35790351  0.42D-01  0.53D-01    73.44
    2     1     1     1.10260020    -0.39132679  -184.21023460    -0.37552427    -0.00422827  0.56D-03  0.26D-03    78.86
    3     1     1     1.10502615    -0.39472627  -184.21363408    -0.00339948    -0.00203295  0.24D-04  0.48D-05    84.18
    4     1     1     1.10542205    -0.39489818  -184.21380598    -0.00017191    -0.00012844  0.12D-05  0.23D-06    89.62
    5     1     1     1.10551651    -0.39492159  -184.21382940    -0.00002342    -0.00006094  0.78D-07  0.12D-07    94.88
    6     1     1     1.10553340    -0.39492525  -184.21383306    -0.00000366    -0.00000625  0.58D-08  0.78D-09   100.12
    7     1     1     1.10553816    -0.39492622  -184.21383403    -0.00000097    -0.00000279  0.48D-09  0.57D-10   105.33
    8     1     1     1.10553913    -0.39492642  -184.21383423    -0.00000020    -0.00000036  0.42D-10  0.46D-11   110.55
    9     1     1     1.10553943    -0.39492648  -184.21383429    -0.00000006    -0.00000017  0.40D-11  0.40D-12   115.74
   10     1     1     1.10553950    -0.39492649  -184.21383430    -0.00000001    -0.00000002  0.40D-12  0.36D-13   120.96
   11     1     1     1.10553953    -0.39492650  -184.21383431    -0.00000000    -0.00000001  0.41D-13  0.36D-14   126.17
   12     1     1     1.10553954    -0.39492650  -184.21383431    -0.00000000    -0.00000000  0.44D-14  0.37D-15   131.41

 Energies without level shift correction:

   12     1     1     1.10553954    -0.37381859  -184.19272640

 Energy contributions for state 1.1:
 ===================================

            Energy contr.      SQ.Norm of FOWF
 Space I     -0.00971631          0.00520381
 Space S     -0.14143032          0.04704370
 Space P     -0.22267196          0.05329203


 =====================================
 Analysis of CPU times by interactions
 =====================================

       I      S      P

 I   1.3%
 S  20.1%  19.9%
 P   0.4%  38.2%   0.1%

 Initialization:  44.2%
 Other:          -24.3%

 Total CPU:      131.4 seconds
 =====================================



 Reference coefficients greater than 0.0500000
 =============================================
 222222000220           0.9452680
 222222000202          -0.1273707
 22222/\002/\          -0.1217271
 222220200220          -0.1188358
 2222/20\0/2\           0.0702666
 222202020220          -0.0699282
 222/2200\2/\           0.0559933
 222202/\0220          -0.0548999
 22222//002\\          -0.0544983



 RESULTS FOR STATE 1.1
 =====================

 Coefficient of reference function:   C(0) = 1.00000000 (fixed)   1.00000000 (relaxed)

 Energy contributions of configuration classes

 CLASS          SQ.NORM        ECORR1        ECORR2
 +++++++++++++++++++++++++++++++++++++++++++++++++++
 Internals    0.00520381   -0.00802133    0.27315154
 Singles      0.04704370   -0.12514016   -0.22833498
 Pairs        0.05329203   -0.20346789   -0.36501653
 Total        1.10553954   -0.33662939   -0.32019997
 +++++++++++++++++++++++++++++++++++++++++++++++++++


 Reference energy                    -183.81890781
 Nuclear energy                        51.81484059
 Kinetic energy                       183.63364997
 One electron energy                 -353.14374123
 Two electron energy                  117.18979287
 Virial quotient                       -1.00275253
 Correlation energy                    -0.32019997
 !RSPT2 STATE 1.1 Energy             -184.139107772924

 Properties without orbital relaxation:

 !RSPT2 STATE 1.1 Dipole moment         0.76847303    -0.13885233     0.00000000
 Dipole moment /Debye                   1.95313567    -0.35290431     0.00000000


 **********************************************************************************************************************************


 PROGRAM * MULTI (Direct Multiconfiguration SCF)       Authors: P.J. Knowles, H.-J. Werner (1984)     S.T. Elbert (1988)


 Number of closed-shell orbitals:   5 (   5   0 )
 Number of active  orbitals:       10 (   7   3 )
 Number of external orbitals:      54 (  36  18 )

 State symmetry 1

 Number of electrons:    12    Spin symmetry=Singlet   Space symmetry=1
 Number of states:        1
 Number of CSFs:       7028
 
 Maximum number of shells:             7
 Maximum number of spin couplings:   132

 Storage for configuration lists   24068, coupling coefficients 301503, address lists 255468

 Molecular orbitals read from record     2140.2  Type=MCSCF/NATURAL (state 1.1)

 Wavefunction dump at record             3140.4

 Convergence thresholds  0.10E-04 (gradient)  0.10E-07 (energy)  0.10E-02 (step length)

 Eigenvalues of redundancy matrix
   1- 10   -0.000000   -0.000000   -0.000000   -0.000000   -0.000000   -0.000000   -0.000000   -0.000000   -0.000000   -0.000000
  11- 20   -0.000000   -0.000000    0.000000    0.000000    0.000000    0.000000    0.000000    0.000000    0.000000    0.000000
  21- 24    0.000000    0.000000    0.000000    0.000000

 Number of orbital rotations:      521   (    35 Core/Active    180 Core/Virtual   0 Active/Active    306 Active/Virtual)
 Total number of variables:       7549


 ITER. MIC  NCI  NEG     ENERGY(VAR)     ENERGY(PROJ)   ENERGY CHANGE     GRAD(0)  GRAD(ORB)   GRAD(CI)     STEP       TIME

   1   40   21    0    -183.81890781    -183.81890781    0.00000000    0.00000315 0.00000000 0.00000015  0.00D+00      0.73

 Warning: orbitals not optimized!

 Solving MCSCF z-vector equations for state  1.1, requested accuracy=      0.10D-05
 Convergence reached in  24 iterations ( 24 expansion vectors), accuracy=  0.69D-06

 Properties including orbital relaxation:

 !RSPT2 dipole moments (ED):            0.82953760    -0.12417737     0.00000000

 RSPT2 Gradient info saved on record         5200.1

 CPU-time for rhs:           20.85 sec
 CPU-time for cpmcscf:        2.44 sec
 CPU-time for densities:      0.00 sec


 **********************************************************************************************************************************
 DATASETS  * FILE   NREC   LENGTH (MB)   RECORD NAMES
              1      25       97.21       500      610      700      900      950      970     1000      129      960     1100   
                                          VAR    BASINP    GEOM    SYMINP    ZMAT    AOBASIS   BASIS     P2S    ABASIS      S 
                                         1400     1410     1200     1210     1080     1600     1650     1700     1380     7000   
                                           T        V       H0       H01     AOSYM     SMH    MOLCAS    OPER     JKOP   
                                         7001     5200     5210     7009     7005   
                                                 RS2GRAD  RS2GRAD    

              2       5        5.45       700     1000      520     2100     2140   
                                         GEOM     BASIS   MCVARS     RHF     MCSCF   

 PROGRAMS   *        TOTAL       RS2    CASSCF       RHF       INT
 CPU TIMES  *       182.49    173.63      8.34      0.13      0.24
 REAL TIME  *       191.65 SEC
 DISK USED  *        99.02 MB      
 SF USED    *       354.15 MB      
 GA USED    *         0.00 MB       (max)       0.00 MB       (current)
 **********************************************************************************************************************************
 
 STEP  1 RHF-SCF        O.K.    
 STEP  2 CASSCF         O.K.    
 STEP  3 RS2            O.K.    
 SETTING MOLPRO_ENERGY  =      -184.13910777  AU                              
 MOLPRO_ENERGY    =       -0.184139107772924E+03 AU


 PROGRAM * ALASKA (Gradient of the energy)     Author: R. Lindh


 RSPT2 Gradient info restored from record    5200.1

 Number of core orbitals:           3 (   3   0 )
 Number of closed-shell orbitals:   2 (   2   0 )
 Number of active  orbitals:       10 (   7   3 )
 Number of external orbitals:      54 (  36  18 )

 Integral thresholds in T2TRAN:            1.0D-10 (PROD)

 Available memory for Transformation:1277797029 words
 Memory needed for incore algorithm:     402848 words
 Minimum memory needed:                  148238 words

 Memory used for transformation:           0.40 MW
 Available memory for gradients:        1279.39 MW

 CPU for transformation:                   0.04 sec
 CPU for integrals and gradient:           1.23 sec
 Total CPU:                                1.29 sec

 Prescreening statistics:
 ========================

 Total number of shell quadruplets:        2.19D+02
 Number of shell quadruplets processed:    2.19D+02 (100.00%)

 RSPT2 GRADIENT FOR STATE 1.1

 Atom          dE/dx               dE/dy               dE/dz

   1         0.076076847        -0.047229098         0.000000000
   2         0.000194707         0.017655440         0.000000000
   3        -0.076271554         0.029573658         0.000000000

 Nuclear force contribution to virial =         0.271344848


 **********************************************************************************************************************************
 DATASETS  * FILE   NREC   LENGTH (MB)   RECORD NAMES
              1      25       97.21       500      610      700      900      950      970     1000      129      960     1100   
                                          VAR    BASINP    GEOM    SYMINP    ZMAT    AOBASIS   BASIS     P2S    ABASIS      S 
                                         1400     1410     1200     1210     1080     1600     1650     1700     1380     7000   
                                           T        V       H0       H01     AOSYM     SMH    MOLCAS    OPER     JKOP   
                                         7001     5200     5210     7009     7005   
                                                 RS2GRAD  RS2GRAD    

              2       5        5.45       700     1000      520     2100     2140   
                                         GEOM     BASIS   MCVARS     RHF     MCSCF   

 PROGRAMS   *        TOTAL     FORCE       RS2    CASSCF       RHF       INT
 CPU TIMES  *       184.74      2.25    173.63      8.34      0.13      0.24
 REAL TIME  *       195.38 SEC
 DISK USED  *        99.02 MB      
 SF USED    *       354.15 MB      
 GA USED    *         0.00 MB       (max)       0.00 MB       (current)
 **********************************************************************************************************************************

 *** MOLGRAD
                                                                                                                                                                                                                                                                

     NN          GRADX             GRADY        GRADZ
    1.0    7.60768470D-02   -4.72290978D-02   0.0D+00
    2.0    1.94707494D-04    1.76554402D-02   0.0D+00
    3.0   -7.62715545D-02    2.95736576D-02   0.0D+00
                                                  

 RS2/aug-cc-pVDZ energy=   -184.139107772924

        RS2             CASSCF          RHF-SCF 
   -184.13910777   -183.81890781   -183.62974513
 **********************************************************************************************************************************
 Molpro calculation terminated
 Variable memory released
