
 Primary working directories    : /scratch/kmoore
 Secondary working directories  : /scratch/kmoore
 Wavefunction directory         : /home/kmoore/wfu/
 Main file repository           : /scratch/kmoore/

 SHA1      : f86d681fdec979508940bfbbc93fd7db66630888
 NAME      : 2015.1.24
 ARCHNAME  : linux/x86_64
 FC        : /blues/gpfs/home/software/spack-0.10.1/opt/spack/linux-centos7-x86_64/intel-17.0.4/intel-mpi-2017.3-dfphq6kavje2olnichisvjjndtridrok/compilers_and_libraries_2017.4.196/linux/mpi/intel64/bin/mpiifort
 BLASLIB   : -L/blues/gpfs/home/software/spack-0.10.1/opt/spack/linux-centos7-x86_64/intel-17.0.4/intel-mkl-2017.3.196-jyjmyutcol3veyt4bazftyqkxxzmfd7o/pkg/compilers_and_libraries_2017.4.196/linux/mkl/lib/intel64 -lmkl_intel_ilp64 -lmkl_intel_thread -lmkl_core
 id        : anlgov

 Nodes     nprocs
 b460         3
 Number of processes for MPI-2 version of Molpro:   nprocs(total)=    4   nprocs(compute)=    3   nprocs(helper)=    1

 Using customized tuning parameters: mindgm=7; mindgv=16; mindgc=1; mindgr=1; noblas=0; minvec=7
 default implementation of scratch files=sf  

                                                                                 !
 memory,1280,m
                                                                                 ! wavefunction template
 angstrom
 geometry = {
            3
  ANT Direct Dynamics Calculation
 N           0.2554606017       -0.2913338500        0.0000000000
 N           1.2895630647        0.1678060609        0.0000000000
 O          -1.3655056671        0.1016467871        0.0000000000
 }
 set,spin=2
 set,charge=0
 basis=aug-cc-pvdz
 nn(1)=1
 nn(2)=2
 nn(3)=3
 {rhf,,maxit=300}
 {casscf,maxit=40
 closed,5
 wf,22,1,2,0}
 {rs2,shift=0.20}
 
 status,all,crash
 
 molpro_energy=energy
 show[1,e25.15],molpro_energy
 {force,varsav}
 text,MOLGRAD
 table,nn,gradx,grady,gradz
 ftyp,f,d,d,d

 Variables initialized (889), CPU time= 0.00 sec
 Commands  initialized (702), CPU time= 0.01 sec, 572 directives.
 Default parameters read. Elapsed time= 0.06 sec

 Checking input...
 Passed
1


                                         ***  PROGRAM SYSTEM MOLPRO  ***
                                       Copyright, TTI GmbH Stuttgart, 2015
                                    Version 2015.1 linked Sep 21 2017 09:51:13


 **********************************************************************************************************************************
 LABEL *                                                                                 
  64 bit mpp version                                                                     DATE: 17-Aug-21          TIME: 10:42:30  
 **********************************************************************************************************************************

 SHA1:             f86d681fdec979508940bfbbc93fd7db66630888
 **********************************************************************************************************************************
 ZUNIT=ANG
 

Geometry recognized as XYZ

 SETTING SPIN           =         2.00000000                                  
 SETTING CHARGE         =     0.00000000D+00                                  

 Variable memory set to 1280000000 words,  buffer space   230000 words

 SETTING BASIS          =    AUG-CC-PVDZ
 SETTING NN(1)          =         1.00000000                                  
 SETTING NN(2)          =         2.00000000                                  
 SETTING NN(3)          =         3.00000000                                  


 Recomputing integrals since basis changed


 Using spherical harmonics

 Library entry N      S aug-cc-pVDZ          selected for orbital group  1
 Library entry N      P aug-cc-pVDZ          selected for orbital group  1
 Library entry N      D aug-cc-pVDZ          selected for orbital group  1
 Library entry O      S aug-cc-pVDZ          selected for orbital group  2
 Library entry O      P aug-cc-pVDZ          selected for orbital group  2
 Library entry O      D aug-cc-pVDZ          selected for orbital group  2


 PROGRAM * SEWARD (Integral evaluation for generally contracted gaussian basis sets)     Author: Roland Lindh, 1990

 Geometry written to block  1 of record 700


 Point group  Cs  



 ATOMIC COORDINATES

 NR  ATOM    CHARGE       X              Y              Z

   1  N       7.00    0.482750573   -0.550541187    0.000000000
   2  N       7.00    2.436921013    0.317107497    0.000000000
   3  O       8.00   -2.580431732    0.192084589    0.000000000

 Bond lengths in Bohr (Angstrom)

 1-2  2.138129170  1-3  3.151916699
     ( 1.131449231)     ( 1.667922488)

 Bond angles

  2-1-3  142.43121911

 NUCLEAR CHARGE:                   22
 NUMBER OF PRIMITIVE AOS:         111
 NUMBER OF SYMMETRY AOS:          105
 NUMBER OF CONTRACTIONS:           69   (  48A'  +  21A"  )
 NUMBER OF CORE ORBITALS:           3   (   3A'  +   0A"  )
 NUMBER OF VALENCE ORBITALS:       12   (   9A'  +   3A"  )


 NUCLEAR REPULSION ENERGY   51.84199878

 Eigenvalues of metric

         1 0.134E-03 0.570E-03 0.265E-02 0.466E-02 0.106E-01 0.184E-01 0.325E-01 0.376E-01
         2 0.104E-01 0.373E-01 0.818E-01 0.161E+00 0.173E+00 0.254E+00 0.328E+00 0.361E+00


 Contracted 2-electron integrals neglected if value below      1.0D-11
 AO integral compression algorithm  1   Integral accuracy      1.0D-11

     9.437 MB (compressed) written to integral file ( 58.1%)

     Node minimum: 3.146 MB, node maximum: 3.146 MB


 NUMBER OF SORTED TWO-ELECTRON INTEGRALS:     511749.     BUFFER LENGTH:  32768
 NUMBER OF SEGMENTS:   1  SEGMENT LENGTH:     511749      RECORD LENGTH: 524288

 Memory used in sort:       1.07 MW

 SORT1 READ     2065561. AND WROTE      494012. INTEGRALS IN      2 RECORDS. CPU TIME:     0.02 SEC, REAL TIME:     0.03 SEC
 SORT2 READ     1485898. AND WROTE     1533840. INTEGRALS IN     36 RECORDS. CPU TIME:     0.02 SEC, REAL TIME:     0.02 SEC

 Node minimum:      510811.  Node maximum:      511749. integrals

 OPERATOR DM      FOR CENTER  0  COORDINATES:    0.000000    0.000000    0.000000


 **********************************************************************************************************************************
 DATASETS  * FILE   NREC   LENGTH (MB)   RECORD NAMES
              1      18       19.21       500      610      700      900      950      970     1000      129      960     1100   
                                          VAR    BASINP    GEOM    SYMINP    ZMAT    AOBASIS   BASIS     P2S    ABASIS      S 
                                         1400     1410     1200     1210     1080     1600     1650     1700   
                                           T        V       H0       H01     AOSYM     SMH    MOLCAS    OPER   

 PROGRAMS   *        TOTAL       INT
 CPU TIMES  *         0.37      0.25
 REAL TIME  *         0.99 SEC
 DISK USED  *        32.11 MB      
 GA USED    *         0.00 MB       (max)       0.00 MB       (current)
 **********************************************************************************************************************************


 PROGRAM * RHF-SCF (OPEN SHELL)       Authors: W. Meyer, H.-J. Werner


 NUMBER OF ELECTRONS:      12+   10-
 CONVERGENCE THRESHOLDS:    1.00E-06 (Density)    1.00E-07 (Energy)
 MAX. NUMBER OF ITERATIONS:      300
 INTERPOLATION TYPE:            DIIS
 INTERPOLATION STEPS:              2 (START)      1 (STEP)
 LEVEL SHIFTS:                 -0.60 (CLOSED) -0.30 (OPEN) 



 Orbital guess generated from atomic densities. Full valence occupancy:   12   3

 Molecular orbital dump at record        2100.2

 Initial alpha occupancy:  10   2
 Initial beta  occupancy:   8   2
 Wave function symmetry:    1

 ITERATION    DDIFF          GRAD             ENERGY        2-EL.EN.            DIPOLE MOMENTS         DIIS   ORB.
    1      0.000D+00      0.000D+00      -183.50107042    232.343966    1.10274   -0.27595    0.00000    0    start
    2      0.000D+00      0.113D-01      -183.59898882    235.104632    0.32222   -0.05486    0.00000    1    diag,B
    3      0.191D-01      0.488D-02      -183.62077365    235.546110    0.31591   -0.08276    0.00000    2    diag,B
    4      0.822D-02      0.242D-02      -183.63713355    235.772476    0.25391   -0.06100    0.00000    3    diag,B
    5      0.467D-02      0.168D-02      -183.64872749    235.931208    0.20327   -0.05502    0.00000    4    diag,B
    6      0.474D-02      0.105D-02      -183.65395280    236.025281    0.16737   -0.05025    0.00000    5    diag,B
    7      0.360D-02      0.565D-03      -183.65527642    236.063636    0.13079   -0.05250    0.00000    6    fixocc
    8      0.242D-02      0.175D-03      -183.65532635    236.074414    0.12739   -0.05053    0.00000    7    diag,B
    9      0.457D-03      0.681D-04      -183.65533725    236.074295    0.12026   -0.05074    0.00000    8    diag,B
   10      0.212D-03      0.306D-04      -183.65533901    236.076636    0.11792   -0.05067    0.00000    9    orth
   11      0.706D-04      0.134D-04      -183.65533938    236.075320    0.11734   -0.05067    0.00000    9    diag,B
   12      0.550D-04      0.724D-05      -183.65533951    236.076058    0.11670   -0.05074    0.00000    9    diag,B
   13      0.232D-04      0.337D-05      -183.65533953    236.075913    0.11655   -0.05076    0.00000    9    diag,B
   14      0.129D-04      0.126D-05      -183.65533954    236.075894    0.11657   -0.05077    0.00000    9    diag,B
   15      0.407D-05      0.492D-06      -183.65533954    236.075860    0.11661   -0.05077    0.00000    9    diag,B
   16      0.217D-05      0.171D-06      -183.65533954    236.075861    0.11661   -0.05077    0.00000    9    diag,B
   17      0.560D-06      0.834D-07      -183.65533954    236.075862    0.11661   -0.05077    0.00000    0    orth

 Final alpha occupancy:  10   2
 Final beta  occupancy:   8   2

 !RHF STATE 1.1 Energy               -183.655339538666
 Nuclear energy                        51.84199878
 One-electron energy                 -353.53526926
 Two-electron energy                  118.03793095
 Virial quotient                       -1.00034124
 !RHF STATE 1.1 Dipole moment           0.11661248    -0.05077095     0.00000000
 Dipole moment /Debye                   0.29637995    -0.12903843     0.00000000

 Orbital energies:

         1.1          2.1          3.1          4.1          5.1          6.1          7.1          8.1          9.1         10.1
    -20.659798   -15.717864   -15.710346    -1.470501    -1.276718    -0.814645    -0.662002    -0.621015    -0.687973    -0.561202

        11.1         12.1
      0.102685     0.113504

         1.2          2.2          3.2          4.2
     -0.632371    -0.539857     0.113662     0.156448

 HOMO      2.2    -0.539857 =     -14.6903eV
 LUMO     11.1     0.102685 =       2.7942eV
 LUMO-HOMO         0.642542 =      17.4845eV


 **********************************************************************************************************************************
 DATASETS  * FILE   NREC   LENGTH (MB)   RECORD NAMES
              1      18       19.21       500      610      700      900      950      970     1000      129      960     1100   
                                          VAR    BASINP    GEOM    SYMINP    ZMAT    AOBASIS   BASIS     P2S    ABASIS      S 
                                         1400     1410     1200     1210     1080     1600     1650     1700   
                                           T        V       H0       H01     AOSYM     SMH    MOLCAS    OPER   

              2       4        2.86       700     1000      520     2100   
                                         GEOM     BASIS   MCVARS     RHF  

 PROGRAMS   *        TOTAL       RHF       INT
 CPU TIMES  *         0.51      0.14      0.25
 REAL TIME  *         1.16 SEC
 DISK USED  *        99.69 MB      
 SF USED    *         0.01 MB      
 GA USED    *         0.00 MB       (max)       0.00 MB       (current)
 **********************************************************************************************************************************


 PROGRAM * MULTI (Direct Multiconfiguration SCF)       Authors: P.J. Knowles, H.-J. Werner (1984)     S.T. Elbert (1988)


 Number of closed-shell orbitals:   5 (   5   0 )
 Number of active  orbitals:       10 (   7   3 )
 Number of external orbitals:      54 (  36  18 )

 State symmetry 1

 Number of electrons:    12    Spin symmetry=Triplet   Space symmetry=1
 Number of states:        1
 Number of CSFs:      10374   (15120 determinants, 30240 intermediate states)

 Molecular orbitals read from record     2100.2  Type=RHF/CANONICAL (state 1.1)

 Wavefunction dump at record             2140.2

 Convergence thresholds  0.10E-01 (gradient)  0.10E-05 (energy)  0.10E-02 (step length)

 Number of orbital rotations:      521   (    35 Core/Active    180 Core/Virtual   0 Active/Active    306 Active/Virtual)
 Total number of variables:      15641


 ITER. MIC  NCI  NEG     ENERGY(VAR)     ENERGY(PROJ)   ENERGY CHANGE     GRAD(0)  GRAD(ORB)   GRAD(CI)     STEP       TIME

   1   70   26    0    -183.67143106    -183.80271615   -0.13128510    0.03299194 0.00054355 0.01600854  0.14D+01      0.45
   2   41   35    0    -183.80467136    -183.81331750   -0.00864614    0.05360802 0.00000206 0.00239558  0.42D+00      1.10
   3   37   31    0    -183.81425386    -183.81453363   -0.00027977    0.01306187 0.00000011 0.00024851  0.69D-01      1.68
   4   28   25    0    -183.81454202    -183.81454279   -0.00000077    0.00066230 0.00000088 0.00002435  0.34D-02      2.16
   5   27   13    0    -183.81454279    -183.81454279   -0.00000000    0.00000582 0.00000009 0.00000151  0.11D-04      2.40

 ** WVFN ****  CONVERGENCE REACHED, FINAL GRADIENT:  0.52D-06


 First order charge density matrix for state 1.1 saved on record  2140.2 (density set 1)

 Results for state 1.1
 =====================

 !MCSCF STATE 1.1 Energy             -183.814542792772
 Nuclear energy                        51.84199878
 Kinetic energy                       183.96310797
 One electron energy                 -353.75011704
 Two electron energy                  118.09357547
 Virial ratio                           1.99919242

 !MCSCF STATE 1.1 Dipole moment         0.11424376    -0.06996815     0.00000000
 Dipole moment /Debye                   0.29035964    -0.17782965     0.00000000


 Natural orbital dump at molpro section  2140.2    (Orbital set 2)



 **********************************************************************************************************************************
 DATASETS  * FILE   NREC   LENGTH (MB)   RECORD NAMES
              1      19       22.92       500      610      700      900      950      970     1000      129      960     1100   
                                          VAR    BASINP    GEOM    SYMINP    ZMAT    AOBASIS   BASIS     P2S    ABASIS      S 
                                         1400     1410     1200     1210     1080     1600     1650     1700     1380   
                                           T        V       H0       H01     AOSYM     SMH    MOLCAS    OPER     JKOP   

              2       5        5.45       700     1000      520     2100     2140   
                                         GEOM     BASIS   MCVARS     RHF     MCSCF   

 PROGRAMS   *        TOTAL    CASSCF       RHF       INT
 CPU TIMES  *         3.07      2.56      0.14      0.25
 REAL TIME  *         4.44 SEC
 DISK USED  *        99.69 MB      
 SF USED    *        24.77 MB      
 GA USED    *         0.00 MB       (max)       0.00 MB       (current)
 **********************************************************************************************************************************


 PROGRAM * RS2 (Multireference RS Perturbation Theory)     Authors: H.-J. Werner (1993), P. Celani (1998)


 Level shift= 0.20

 Convergence thresholds:  THRVAR = 1.00D-10  THRDEN = 1.00D-08

 Number of optimized states:  1  Roots:   1
 Number of reference states:  1  Roots:   1

 Reference symmetry:                   1   Triplet 
 Number of electrons:                 22
 Maximum number of shells:             6
 Maximum number of spin couplings:   297

 Reference space:     3283 conf    10374 CSFs
 N elec internal:    24345 conf   101970 CSFs
 N-1 el internal:    36037 conf   292275 CSFs
 N-2 el internal:    35292 conf   548774 CSFs

 Number of electrons in valence space:                     16
 Maximum number of open shell orbitals in reference space:  8
 Maximum number of open shell orbitals in internal spaces: 12


 Number of core orbitals:           3 (   3   0 )
 Number of closed-shell orbitals:   2 (   2   0 )
 Number of active  orbitals:       10 (   7   3 )
 Number of external orbitals:      54 (  36  18 )

 Molecular orbitals read from record     2140.2  Type=MCSCF/NATURAL (state 1.1)

 Coulomb and exchange operators available. No transformation done.

 Number of p-space configurations:  22

 Reference wavefunction optimized for reference space (refopt=1)

 State     Reference Energy 
   1        -183.81454279

 Number of blocks in overlap matrix:     4   Smallest eigenvalue:  0.16D-01
 Number of N-2 electron functions:     144
 Number of N-1 electron functions:  292275

 Number of internal configurations:                50982
 Number of singly external configurations:       7897302
 Number of doubly external configurations:        108216
 Total number of contracted configurations:      8056500
 Total number of uncontracted configurations:  417836877

 Weight factors for SA-density in H0:    1.000000

 FIMAX=  0.27D+00  FXMAX=  0.57D-07  DIAG=  F  F  NOREF=1  NOINT=0  IHPPD=2

 Nuclear energy:                      51.84199878
 Core energy:                       -173.22475058
 Zeroth-order valence energy:        -12.10010845
 Zeroth-order total energy:         -133.48286025
 First-order energy:                 -50.33168254

 Using uncontracted singles

 Diagonal Coupling coefficients finished.               Storage: 1766116 words, CPU-Time:      0.00 seconds.
 Energy denominators for pairs finished in 0 passes.    Storage: 1759081 words, CPU-time:      0.00 seconds.

 A level shift of 0.20 is applied.

  ITER. STATE  ROOT     SQ.NORM     CORR.ENERGY   TOTAL ENERGY   ENERGY CHANGE       DEN1      VAR(S)    VAR(P)      TIME
    1     1     1     1.03736177    -0.00747235  -183.82201515    -0.00747235    -0.29792950  0.37D-01  0.42D-01     9.64
    2     1     1     1.08394747    -0.32204921  -184.13659200    -0.31457686    -0.00275756  0.52D-03  0.17D-03    18.31
    3     1     1     1.08534456    -0.32447401  -184.13901680    -0.00242480    -0.00155541  0.20D-04  0.32D-05    26.78
    4     1     1     1.08563972    -0.32459734  -184.13914014    -0.00012334    -0.00005179  0.11D-05  0.15D-06    35.20
    5     1     1     1.08570145    -0.32461273  -184.13915552    -0.00001538    -0.00004789  0.93D-07  0.72D-08    43.68
    6     1     1     1.08571007    -0.32461465  -184.13915744    -0.00000193    -0.00000034  0.11D-07  0.51D-09    52.08
    7     1     1     1.08571320    -0.32461529  -184.13915809    -0.00000064    -0.00000242  0.15D-08  0.40D-10    60.38
    8     1     1     1.08571348    -0.32461535  -184.13915814    -0.00000005     0.00000017  0.26D-09  0.40D-11    68.75
    9     1     1     1.08571370    -0.32461539  -184.13915818    -0.00000004    -0.00000018  0.48D-10  0.49D-12    77.04
   10     1     1     1.08571370    -0.32461539  -184.13915818     0.00000000     0.00000003  0.94D-11  0.67D-13    85.29
   11     1     1     1.08571372    -0.32461539  -184.13915819    -0.00000000    -0.00000002  0.19D-11  0.10D-13    93.55

 Energies without level shift correction:

   11     1     1     1.08571372    -0.30747265  -184.12201544

 Energy contributions for state 1.1:
 ===================================

            Energy contr.      SQ.Norm of FOWF
 Space I     -0.00551097          0.00261674
 Space S     -0.12168842          0.04061906
 Space P     -0.18027327          0.04247792


 =====================================
 Analysis of CPU times by interactions
 =====================================

       I      S      P

 I   2.3%
 S  15.6%  33.4%
 P   0.7%  36.3%   0.0%

 Initialization:   6.4%
 Other:            5.3%

 Total CPU:       93.5 seconds
 =====================================


 Initialize record     7000.1
 Now solve CP-CASPT2 equations

 A level shift of 0.20 is applied.

  ITER. STATE  ROOT     SQ.NORM     CORR.ENERGY   TOTAL ENERGY   ENERGY CHANGE       DEN1      VAR(S)    VAR(P)      TIME
    1     1     1     1.05323779    -0.01615853  -183.83070132    -0.01615853    -0.36704494  0.51D-01  0.52D-01   114.43
    2     1     1     1.10924536    -0.39971064  -184.21425343    -0.38355211    -0.00414243  0.72D-03  0.23D-03   123.03
    3     1     1     1.11134684    -0.40301287  -184.21755567    -0.00330223    -0.00208337  0.29D-04  0.43D-05   131.49
    4     1     1     1.11176196    -0.40318507  -184.21772787    -0.00017220    -0.00008692  0.16D-05  0.23D-06   139.92
    5     1     1     1.11185463    -0.40320789  -184.21775069    -0.00002282    -0.00006600  0.14D-06  0.10D-07   148.37
    6     1     1     1.11186749    -0.40321075  -184.21775354    -0.00000285    -0.00000134  0.15D-07  0.74D-09   156.77
    7     1     1     1.11187226    -0.40321173  -184.21775452    -0.00000098    -0.00000338  0.22D-08  0.56D-10   165.16
    8     1     1     1.11187271    -0.40321181  -184.21775461    -0.00000009     0.00000018  0.36D-09  0.57D-11   173.48
    9     1     1     1.11187304    -0.40321188  -184.21775467    -0.00000007    -0.00000026  0.67D-10  0.67D-12   181.80
   10     1     1     1.11187304    -0.40321188  -184.21775467     0.00000000     0.00000004  0.13D-10  0.93D-13   190.19
   11     1     1     1.11187307    -0.40321189  -184.21775468    -0.00000001    -0.00000003  0.27D-11  0.14D-13   198.52

 Energies without level shift correction:

   11     1     1     1.11187307    -0.38083727  -184.19538006

 Energy contributions for state 1.1:
 ===================================

            Energy contr.      SQ.Norm of FOWF
 Space I     -0.00780532          0.00379160
 Space S     -0.15690679          0.05560714
 Space P     -0.21612516          0.05247433


 =====================================
 Analysis of CPU times by interactions
 =====================================

       I      S      P

 I   1.1%
 S  14.3%  31.6%
 P   0.3%  34.1%   0.0%

 Initialization:  48.8%
 Other:          -30.4%

 Total CPU:      198.5 seconds
 =====================================



 Reference coefficients greater than 0.0500000
 =============================================
 22222//00220           0.9531639
 22222//00202          -0.1266957
 22220//20220          -0.1100008
 2222///\02/\           0.0704807
 2222///\02\/          -0.0686568
 222/2\//0220          -0.0651022
 2222/\//02/\           0.0598189



 RESULTS FOR STATE 1.1
 =====================

 Coefficient of reference function:   C(0) = 1.00000000 (fixed)   1.00000000 (relaxed)

 Energy contributions of configuration classes

 CLASS          SQ.NORM        ECORR1        ECORR2
 +++++++++++++++++++++++++++++++++++++++++++++++++++
 Internals    0.00379160   -0.00654671    0.27907212
 Singles      0.05560714   -0.13795401   -0.25133138
 Pairs        0.05247433   -0.19725741   -0.35235613
 Total        1.11187307   -0.34175814   -0.32461539
 +++++++++++++++++++++++++++++++++++++++++++++++++++


 Reference energy                    -183.81454279
 Nuclear energy                        51.84199878
 Kinetic energy                       184.21068694
 One electron energy                 -353.52477477
 Two electron energy                  117.54361780
 Virial quotient                       -0.99961170
 Correlation energy                    -0.32461539
 !RSPT2 STATE 1.1 Energy             -184.139158187140

 Properties without orbital relaxation:

 !RSPT2 STATE 1.1 Dipole moment         0.12464677    -0.06740252     0.00000000
 Dipole moment /Debye                   0.31679975    -0.17130890     0.00000000


 **********************************************************************************************************************************


 PROGRAM * MULTI (Direct Multiconfiguration SCF)       Authors: P.J. Knowles, H.-J. Werner (1984)     S.T. Elbert (1988)


 Number of closed-shell orbitals:   5 (   5   0 )
 Number of active  orbitals:       10 (   7   3 )
 Number of external orbitals:      54 (  36  18 )

 State symmetry 1

 Number of electrons:    12    Spin symmetry=Triplet   Space symmetry=1
 Number of states:        1
 Number of CSFs:      10374
 
 Maximum number of shells:             6
 Maximum number of spin couplings:   297

 Storage for configuration lists   23753, coupling coefficients1494454, address lists 248643

 Molecular orbitals read from record     2140.2  Type=MCSCF/NATURAL (state 1.1)

 Wavefunction dump at record             3140.4

 Convergence thresholds  0.10E-04 (gradient)  0.10E-07 (energy)  0.10E-02 (step length)

 Eigenvalues of redundancy matrix
   1- 10   -0.000000   -0.000000   -0.000000   -0.000000   -0.000000   -0.000000   -0.000000   -0.000000   -0.000000    0.000000
  11- 20    0.000000    0.000000    0.000000    0.000000    0.000000    0.000000    0.000000    0.000000    0.000000    0.000000
  21- 24    0.000000    0.000000    0.000000    0.000000

 Number of orbital rotations:      521   (    35 Core/Active    180 Core/Virtual   0 Active/Active    306 Active/Virtual)
 Total number of variables:      10895


 ITER. MIC  NCI  NEG     ENERGY(VAR)     ENERGY(PROJ)   ENERGY CHANGE     GRAD(0)  GRAD(ORB)   GRAD(CI)     STEP       TIME

   1   27   20    0    -183.81454279    -183.81454279    0.00000000    0.00000051 0.00000000 0.00000020  0.00D+00      0.97

 Warning: orbitals not optimized!

 Solving MCSCF z-vector equations for state  1.1, requested accuracy=      0.10D-05
 Convergence reached in  19 iterations ( 19 expansion vectors), accuracy=  0.66D-06

 Properties including orbital relaxation:

 !RSPT2 dipole moments (ED):            0.19711828    -0.07453025     0.00000000

 RSPT2 Gradient info saved on record         5200.1

 CPU-time for rhs:           31.76 sec
 CPU-time for cpmcscf:        2.90 sec
 CPU-time for densities:      0.00 sec


 **********************************************************************************************************************************
 DATASETS  * FILE   NREC   LENGTH (MB)   RECORD NAMES
              1      25      153.92       500      610      700      900      950      970     1000      129      960     1100   
                                          VAR    BASINP    GEOM    SYMINP    ZMAT    AOBASIS   BASIS     P2S    ABASIS      S 
                                         1400     1410     1200     1210     1080     1600     1650     1700     1380     7000   
                                           T        V       H0       H01     AOSYM     SMH    MOLCAS    OPER     JKOP   
                                         7001     5200     5210     7009     7005   
                                                 RS2GRAD  RS2GRAD    

              2       5        5.45       700     1000      520     2100     2140   
                                         GEOM     BASIS   MCVARS     RHF     MCSCF   

 PROGRAMS   *        TOTAL       RS2    CASSCF       RHF       INT
 CPU TIMES  *       266.39    263.32      2.56      0.14      0.25
 REAL TIME  *       277.57 SEC
 DISK USED  *        99.69 MB      
 SF USED    *       611.64 MB      
 GA USED    *         0.00 MB       (max)       0.00 MB       (current)
 **********************************************************************************************************************************
 
 STEP  1 RHF-SCF        O.K.    
 STEP  2 CASSCF         O.K.    
 STEP  3 RS2            O.K.    
 SETTING MOLPRO_ENERGY  =      -184.13915819  AU                              
 MOLPRO_ENERGY    =       -0.184139158187140E+03 AU


 PROGRAM * ALASKA (Gradient of the energy)     Author: R. Lindh


 RSPT2 Gradient info restored from record    5200.1

 Number of core orbitals:           3 (   3   0 )
 Number of closed-shell orbitals:   2 (   2   0 )
 Number of active  orbitals:       10 (   7   3 )
 Number of external orbitals:      54 (  36  18 )

 Integral thresholds in T2TRAN:            1.0D-10 (PROD)

 Available memory for Transformation:1277797029 words
 Memory needed for incore algorithm:     402848 words
 Minimum memory needed:                  148238 words

 Memory used for transformation:           0.40 MW
 Available memory for gradients:        1279.39 MW

 CPU for transformation:                   0.00 sec
 CPU for integrals and gradient:           1.25 sec
 Total CPU:                                1.28 sec

 Prescreening statistics:
 ========================

 Total number of shell quadruplets:        2.20D+02
 Number of shell quadruplets processed:    2.20D+02 (100.00%)

 RSPT2 GRADIENT FOR STATE 1.1

 Atom          dE/dx               dE/dy               dE/dz

   1        -0.063320574         0.039278648         0.000000000
   2         0.000265391        -0.014601492         0.000000000
   3         0.063055183        -0.024677156         0.000000000

 Nuclear force contribution to virial =        -0.223625760


 **********************************************************************************************************************************
 DATASETS  * FILE   NREC   LENGTH (MB)   RECORD NAMES
              1      25      153.92       500      610      700      900      950      970     1000      129      960     1100   
                                          VAR    BASINP    GEOM    SYMINP    ZMAT    AOBASIS   BASIS     P2S    ABASIS      S 
                                         1400     1410     1200     1210     1080     1600     1650     1700     1380     7000   
                                           T        V       H0       H01     AOSYM     SMH    MOLCAS    OPER     JKOP   
                                         7001     5200     5210     7009     7005   
                                                 RS2GRAD  RS2GRAD    

              2       5        5.45       700     1000      520     2100     2140   
                                         GEOM     BASIS   MCVARS     RHF     MCSCF   

 PROGRAMS   *        TOTAL     FORCE       RS2    CASSCF       RHF       INT
 CPU TIMES  *       268.62      2.23    263.32      2.56      0.14      0.25
 REAL TIME  *       281.26 SEC
 DISK USED  *        99.69 MB      
 SF USED    *       611.64 MB      
 GA USED    *         0.00 MB       (max)       0.00 MB       (current)
 **********************************************************************************************************************************

 *** MOLGRAD
                                                                                                                                                                                                                                                                

     NN          GRADX             GRADY        GRADZ
    1.0   -6.33205742D-02    3.92786476D-02   0.0D+00
    2.0    2.65390806D-04   -1.46014915D-02   0.0D+00
    3.0    6.30551833D-02   -2.46771561D-02   0.0D+00
                                                  

 RS2/aug-cc-pVDZ energy=   -184.139158187140

        RS2             CASSCF          RHF-SCF 
   -184.13915819   -183.81454279   -183.65533954
 **********************************************************************************************************************************
 Molpro calculation terminated
 Variable memory released
