
 Primary working directories    : /scratch/kmoore
 Secondary working directories  : /scratch/kmoore
 Wavefunction directory         : /home/kmoore/wfu/
 Main file repository           : /scratch/kmoore/

 SHA1      : f86d681fdec979508940bfbbc93fd7db66630888
 NAME      : 2015.1.24
 ARCHNAME  : linux/x86_64
 FC        : /blues/gpfs/home/software/spack-0.10.1/opt/spack/linux-centos7-x86_64/intel-17.0.4/intel-mpi-2017.3-dfphq6kavje2olnichisvjjndtridrok/compilers_and_libraries_2017.4.196/linux/mpi/intel64/bin/mpiifort
 BLASLIB   : -L/blues/gpfs/home/software/spack-0.10.1/opt/spack/linux-centos7-x86_64/intel-17.0.4/intel-mkl-2017.3.196-jyjmyutcol3veyt4bazftyqkxxzmfd7o/pkg/compilers_and_libraries_2017.4.196/linux/mkl/lib/intel64 -lmkl_intel_ilp64 -lmkl_intel_thread -lmkl_core
 id        : anlgov

 Nodes     nprocs
 b460         3
 Number of processes for MPI-2 version of Molpro:   nprocs(total)=    4   nprocs(compute)=    3   nprocs(helper)=    1

 Using customized tuning parameters: mindgm=7; mindgv=16; mindgc=1; mindgr=1; noblas=0; minvec=7
 default implementation of scratch files=sf  

                                                                                 !
 memory,1280,m
                                                                                 ! wavefunction template
 angstrom
 geometry = {
            3
  ANT Direct Dynamics Calculation
 N           0.2554731455       -0.2912187918        0.0000000000
 N           1.2896449386        0.1677361841        0.0000000000
 O          -1.3656000829        0.1016016075        0.0000000000
 }
 set,spin=2
 set,charge=0
 basis=aug-cc-pvdz
 nn(1)=1
 nn(2)=2
 nn(3)=3
 {rhf,,maxit=300}
 {casscf,maxit=40
 closed,5
 wf,22,1,2,0}
 {rs2,shift=0.20}
 
 status,all,crash
 
 molpro_energy=energy
 show[1,e25.15],molpro_energy
 {force,varsav}
 text,MOLGRAD
 table,nn,gradx,grady,gradz
 ftyp,f,d,d,d

 Variables initialized (889), CPU time= 0.01 sec
 Commands  initialized (702), CPU time= 0.01 sec, 572 directives.
 Default parameters read. Elapsed time= 0.08 sec

 Checking input...
 Passed
1


                                         ***  PROGRAM SYSTEM MOLPRO  ***
                                       Copyright, TTI GmbH Stuttgart, 2015
                                    Version 2015.1 linked Sep 21 2017 09:51:13


 **********************************************************************************************************************************
 LABEL *                                                                                 
  64 bit mpp version                                                                     DATE: 17-Aug-21          TIME: 10:58:24  
 **********************************************************************************************************************************

 SHA1:             f86d681fdec979508940bfbbc93fd7db66630888
 **********************************************************************************************************************************
 ZUNIT=ANG
 

Geometry recognized as XYZ

 SETTING SPIN           =         2.00000000                                  
 SETTING CHARGE         =     0.00000000D+00                                  

 Variable memory set to 1280000000 words,  buffer space   230000 words

 SETTING BASIS          =    AUG-CC-PVDZ
 SETTING NN(1)          =         1.00000000                                  
 SETTING NN(2)          =         2.00000000                                  
 SETTING NN(3)          =         3.00000000                                  


 Recomputing integrals since basis changed


 Using spherical harmonics

 Library entry N      S aug-cc-pVDZ          selected for orbital group  1
 Library entry N      P aug-cc-pVDZ          selected for orbital group  1
 Library entry N      D aug-cc-pVDZ          selected for orbital group  1
 Library entry O      S aug-cc-pVDZ          selected for orbital group  2
 Library entry O      P aug-cc-pVDZ          selected for orbital group  2
 Library entry O      D aug-cc-pVDZ          selected for orbital group  2


 PROGRAM * SEWARD (Integral evaluation for generally contracted gaussian basis sets)     Author: Roland Lindh, 1990

 Geometry written to block  1 of record 700


 Point group  Cs  



 ATOMIC COORDINATES

 NR  ATOM    CHARGE       X              Y              Z

   1  N       7.00    0.482774277   -0.550323759    0.000000000
   2  N       7.00    2.437075732    0.316975449    0.000000000
   3  O       8.00   -2.580610152    0.191999212    0.000000000

 Bond lengths in Bohr (Angstrom)

 1-2  2.138107128  1-3  3.152041807
     ( 1.131437567)     ( 1.667988692)

 Bond angles

  2-1-3  142.44741804

 NUCLEAR CHARGE:                   22
 NUMBER OF PRIMITIVE AOS:         111
 NUMBER OF SYMMETRY AOS:          105
 NUMBER OF CONTRACTIONS:           69   (  48A'  +  21A"  )
 NUMBER OF CORE ORBITALS:           3   (   3A'  +   0A"  )
 NUMBER OF VALENCE ORBITALS:       12   (   9A'  +   3A"  )


 NUCLEAR REPULSION ENERGY   51.84079208

 Eigenvalues of metric

         1 0.134E-03 0.570E-03 0.265E-02 0.466E-02 0.106E-01 0.184E-01 0.325E-01 0.376E-01
         2 0.104E-01 0.373E-01 0.818E-01 0.161E+00 0.173E+00 0.254E+00 0.328E+00 0.361E+00


 Contracted 2-electron integrals neglected if value below      1.0D-11
 AO integral compression algorithm  1   Integral accuracy      1.0D-11

     9.437 MB (compressed) written to integral file ( 58.1%)

     Node minimum: 3.146 MB, node maximum: 3.146 MB


 NUMBER OF SORTED TWO-ELECTRON INTEGRALS:     511749.     BUFFER LENGTH:  32768
 NUMBER OF SEGMENTS:   1  SEGMENT LENGTH:     511749      RECORD LENGTH: 524288

 Memory used in sort:       1.07 MW

 SORT1 READ     2065561. AND WROTE      494011. INTEGRALS IN      2 RECORDS. CPU TIME:     0.02 SEC, REAL TIME:     0.03 SEC
 SORT2 READ     1485898. AND WROTE     1533840. INTEGRALS IN     36 RECORDS. CPU TIME:     0.01 SEC, REAL TIME:     0.03 SEC

 Node minimum:      510811.  Node maximum:      511749. integrals

 OPERATOR DM      FOR CENTER  0  COORDINATES:    0.000000    0.000000    0.000000


 **********************************************************************************************************************************
 DATASETS  * FILE   NREC   LENGTH (MB)   RECORD NAMES
              1      18       19.21       500      610      700      900      950      970     1000      129      960     1100   
                                          VAR    BASINP    GEOM    SYMINP    ZMAT    AOBASIS   BASIS     P2S    ABASIS      S 
                                         1400     1410     1200     1210     1080     1600     1650     1700   
                                           T        V       H0       H01     AOSYM     SMH    MOLCAS    OPER   

 PROGRAMS   *        TOTAL       INT
 CPU TIMES  *         0.40      0.26
 REAL TIME  *         1.00 SEC
 DISK USED  *        32.11 MB      
 GA USED    *         0.00 MB       (max)       0.00 MB       (current)
 **********************************************************************************************************************************


 PROGRAM * RHF-SCF (OPEN SHELL)       Authors: W. Meyer, H.-J. Werner


 NUMBER OF ELECTRONS:      12+   10-
 CONVERGENCE THRESHOLDS:    1.00E-06 (Density)    1.00E-07 (Energy)
 MAX. NUMBER OF ITERATIONS:      300
 INTERPOLATION TYPE:            DIIS
 INTERPOLATION STEPS:              2 (START)      1 (STEP)
 LEVEL SHIFTS:                 -0.60 (CLOSED) -0.30 (OPEN) 



 Orbital guess generated from atomic densities. Full valence occupancy:   12   3

 Molecular orbital dump at record        2100.2

 Initial alpha occupancy:  10   2
 Initial beta  occupancy:   8   2
 Wave function symmetry:    1

 ITERATION    DDIFF          GRAD             ENERGY        2-EL.EN.            DIPOLE MOMENTS         DIIS   ORB.
    1      0.000D+00      0.000D+00      -183.50109052    232.341920    1.10287   -0.27576    0.00000    0    start
    2      0.000D+00      0.113D-01      -183.59900487    235.102483    0.32250   -0.05483    0.00000    1    diag,B
    3      0.191D-01      0.488D-02      -183.62079025    235.543958    0.31610   -0.08272    0.00000    2    diag,B
    4      0.822D-02      0.242D-02      -183.63715300    235.770362    0.25408   -0.06098    0.00000    3    diag,B
    5      0.467D-02      0.168D-02      -183.64874829    235.929084    0.20338   -0.05500    0.00000    4    diag,B
    6      0.474D-02      0.105D-02      -183.65397012    236.023153    0.16744   -0.05023    0.00000    5    diag,B
    7      0.360D-02      0.565D-03      -183.65529107    236.061411    0.13086   -0.05248    0.00000    6    fixocc
    8      0.242D-02      0.175D-03      -183.65534092    236.072199    0.12746   -0.05051    0.00000    7    diag,B
    9      0.457D-03      0.680D-04      -183.65535179    236.072067    0.12033   -0.05073    0.00000    8    diag,B
   10      0.211D-03      0.305D-04      -183.65535355    236.074411    0.11799   -0.05065    0.00000    9    orth
   11      0.706D-04      0.134D-04      -183.65535392    236.073097    0.11741   -0.05065    0.00000    9    diag,B
   12      0.550D-04      0.724D-05      -183.65535405    236.073833    0.11678   -0.05072    0.00000    9    diag,B
   13      0.232D-04      0.337D-05      -183.65535407    236.073689    0.11662   -0.05074    0.00000    9    diag,B
   14      0.129D-04      0.126D-05      -183.65535408    236.073670    0.11665   -0.05075    0.00000    9    diag,B
   15      0.407D-05      0.491D-06      -183.65535408    236.073635    0.11668   -0.05075    0.00000    9    diag,B
   16      0.216D-05      0.171D-06      -183.65535408    236.073637    0.11669   -0.05075    0.00000    9    diag,B
   17      0.560D-06      0.833D-07      -183.65535408    236.073637    0.11669   -0.05075    0.00000    0    orth

 Final alpha occupancy:  10   2
 Final beta  occupancy:   8   2

 !RHF STATE 1.1 Energy               -183.655354078218
 Nuclear energy                        51.84079208
 One-electron energy                 -353.53296490
 Two-electron energy                  118.03681874
 Virial quotient                       -1.00034088
 !RHF STATE 1.1 Dipole moment           0.11668703    -0.05075113     0.00000000
 Dipole moment /Debye                   0.29656942    -0.12898805     0.00000000

 Orbital energies:

         1.1          2.1          3.1          4.1          5.1          6.1          7.1          8.1          9.1         10.1
    -20.659785   -15.717854   -15.710348    -1.470503    -1.276703    -0.814640    -0.662002    -0.621012    -0.687966    -0.561229

        11.1         12.1
      0.102683     0.113500

         1.2          2.2          3.2          4.2
     -0.632365    -0.539855     0.113667     0.156447

 HOMO      2.2    -0.539855 =     -14.6902eV
 LUMO     11.1     0.102683 =       2.7942eV
 LUMO-HOMO         0.642539 =      17.4844eV


 **********************************************************************************************************************************
 DATASETS  * FILE   NREC   LENGTH (MB)   RECORD NAMES
              1      18       19.21       500      610      700      900      950      970     1000      129      960     1100   
                                          VAR    BASINP    GEOM    SYMINP    ZMAT    AOBASIS   BASIS     P2S    ABASIS      S 
                                         1400     1410     1200     1210     1080     1600     1650     1700   
                                           T        V       H0       H01     AOSYM     SMH    MOLCAS    OPER   

              2       4        2.86       700     1000      520     2100   
                                         GEOM     BASIS   MCVARS     RHF  

 PROGRAMS   *        TOTAL       RHF       INT
 CPU TIMES  *         0.53      0.13      0.26
 REAL TIME  *         1.16 SEC
 DISK USED  *        99.69 MB      
 SF USED    *         0.01 MB      
 GA USED    *         0.00 MB       (max)       0.00 MB       (current)
 **********************************************************************************************************************************


 PROGRAM * MULTI (Direct Multiconfiguration SCF)       Authors: P.J. Knowles, H.-J. Werner (1984)     S.T. Elbert (1988)


 Number of closed-shell orbitals:   5 (   5   0 )
 Number of active  orbitals:       10 (   7   3 )
 Number of external orbitals:      54 (  36  18 )

 State symmetry 1

 Number of electrons:    12    Spin symmetry=Triplet   Space symmetry=1
 Number of states:        1
 Number of CSFs:      10374   (15120 determinants, 30240 intermediate states)

 Molecular orbitals read from record     2100.2  Type=RHF/CANONICAL (state 1.1)

 Wavefunction dump at record             2140.2

 Convergence thresholds  0.10E-01 (gradient)  0.10E-05 (energy)  0.10E-02 (step length)

 Number of orbital rotations:      521   (    35 Core/Active    180 Core/Virtual   0 Active/Active    306 Active/Virtual)
 Total number of variables:      15641


 ITER. MIC  NCI  NEG     ENERGY(VAR)     ENERGY(PROJ)   ENERGY CHANGE     GRAD(0)  GRAD(ORB)   GRAD(CI)     STEP       TIME

   1   70   26    0    -183.67144282    -183.80265428   -0.13121146    0.03298807 0.00063910 0.01597108  0.14D+01      0.44
   2   41   35    0    -183.80465185    -183.81331731   -0.00866546    0.05364183 0.00000206 0.00240046  0.43D+00      1.10
   3   37   31    0    -183.81425820    -183.81453992   -0.00028171    0.01310010 0.00000011 0.00024898  0.69D-01      1.67
   4   28   25    0    -183.81454840    -183.81454918   -0.00000078    0.00066608 0.00000088 0.00002458  0.34D-02      2.11
   5   27   13    0    -183.81454918    -183.81454918   -0.00000000    0.00000587 0.00000009 0.00000152  0.11D-04      2.31

 ** WVFN ****  CONVERGENCE REACHED, FINAL GRADIENT:  0.52D-06


 First order charge density matrix for state 1.1 saved on record  2140.2 (density set 1)

 Results for state 1.1
 =====================

 !MCSCF STATE 1.1 Energy             -183.814549175683
 Nuclear energy                        51.84079208
 Kinetic energy                       183.96321137
 One electron energy                 -353.74782495
 Two electron energy                  118.09248369
 Virial ratio                           1.99919189

 !MCSCF STATE 1.1 Dipole moment         0.11432771    -0.06994307     0.00000000
 Dipole moment /Debye                   0.29057303    -0.17776591     0.00000000


 Natural orbital dump at molpro section  2140.2    (Orbital set 2)



 **********************************************************************************************************************************
 DATASETS  * FILE   NREC   LENGTH (MB)   RECORD NAMES
              1      19       22.92       500      610      700      900      950      970     1000      129      960     1100   
                                          VAR    BASINP    GEOM    SYMINP    ZMAT    AOBASIS   BASIS     P2S    ABASIS      S 
                                         1400     1410     1200     1210     1080     1600     1650     1700     1380   
                                           T        V       H0       H01     AOSYM     SMH    MOLCAS    OPER     JKOP   

              2       5        5.45       700     1000      520     2100     2140   
                                         GEOM     BASIS   MCVARS     RHF     MCSCF   

 PROGRAMS   *        TOTAL    CASSCF       RHF       INT
 CPU TIMES  *         3.00      2.47      0.13      0.26
 REAL TIME  *         4.39 SEC
 DISK USED  *        99.69 MB      
 SF USED    *        24.77 MB      
 GA USED    *         0.00 MB       (max)       0.00 MB       (current)
 **********************************************************************************************************************************


 PROGRAM * RS2 (Multireference RS Perturbation Theory)     Authors: H.-J. Werner (1993), P. Celani (1998)


 Level shift= 0.20

 Convergence thresholds:  THRVAR = 1.00D-10  THRDEN = 1.00D-08

 Number of optimized states:  1  Roots:   1
 Number of reference states:  1  Roots:   1

 Reference symmetry:                   1   Triplet 
 Number of electrons:                 22
 Maximum number of shells:             6
 Maximum number of spin couplings:   297

 Reference space:     3283 conf    10374 CSFs
 N elec internal:    24345 conf   101970 CSFs
 N-1 el internal:    36037 conf   292275 CSFs
 N-2 el internal:    35292 conf   548774 CSFs

 Number of electrons in valence space:                     16
 Maximum number of open shell orbitals in reference space:  8
 Maximum number of open shell orbitals in internal spaces: 12


 Number of core orbitals:           3 (   3   0 )
 Number of closed-shell orbitals:   2 (   2   0 )
 Number of active  orbitals:       10 (   7   3 )
 Number of external orbitals:      54 (  36  18 )

 Molecular orbitals read from record     2140.2  Type=MCSCF/NATURAL (state 1.1)

 Coulomb and exchange operators available. No transformation done.

 Number of p-space configurations:  22

 Reference wavefunction optimized for reference space (refopt=1)

 State     Reference Energy 
   1        -183.81454918

 Number of blocks in overlap matrix:     4   Smallest eigenvalue:  0.16D-01
 Number of N-2 electron functions:     144
 Number of N-1 electron functions:  292275

 Number of internal configurations:                50982
 Number of singly external configurations:       7897302
 Number of doubly external configurations:        108216
 Total number of contracted configurations:      8056500
 Total number of uncontracted configurations:  417836877

 Weight factors for SA-density in H0:    1.000000

 FIMAX=  0.27D+00  FXMAX=  0.57D-07  DIAG=  F  F  NOREF=1  NOINT=0  IHPPD=2

 Nuclear energy:                      51.84079208
 Core energy:                       -173.22419428
 Zeroth-order valence energy:        -12.10003854
 Zeroth-order total energy:         -133.48344074
 First-order energy:                 -50.33110844

 Using uncontracted singles

 Diagonal Coupling coefficients finished.               Storage: 1766116 words, CPU-Time:      0.00 seconds.
 Energy denominators for pairs finished in 0 passes.    Storage: 1759081 words, CPU-time:      0.00 seconds.

 A level shift of 0.20 is applied.

  ITER. STATE  ROOT     SQ.NORM     CORR.ENERGY   TOTAL ENERGY   ENERGY CHANGE       DEN1      VAR(S)    VAR(P)      TIME
    1     1     1     1.03735810    -0.00747162  -183.82202079    -0.00747162    -0.29792289  0.37D-01  0.42D-01     9.62
    2     1     1     1.08394485    -0.32204293  -184.13659211    -0.31457131    -0.00275860  0.52D-03  0.17D-03    18.14
    3     1     1     1.08534201    -0.32446775  -184.13901693    -0.00242482    -0.00155537  0.20D-04  0.32D-05    26.55
    4     1     1     1.08563722    -0.32459110  -184.13914027    -0.00012335    -0.00005181  0.11D-05  0.15D-06    34.92
    5     1     1     1.08569895    -0.32460648  -184.13915566    -0.00001538    -0.00004789  0.93D-07  0.72D-08    43.41
    6     1     1     1.08570757    -0.32460841  -184.13915758    -0.00000193    -0.00000034  0.11D-07  0.51D-09    51.68
    7     1     1     1.08571070    -0.32460905  -184.13915822    -0.00000064    -0.00000242  0.15D-08  0.40D-10    59.97
    8     1     1     1.08571098    -0.32460910  -184.13915828    -0.00000005     0.00000017  0.26D-09  0.40D-11    68.35
    9     1     1     1.08571120    -0.32460915  -184.13915832    -0.00000004    -0.00000018  0.48D-10  0.49D-12    76.61
   10     1     1     1.08571120    -0.32460915  -184.13915832     0.00000000     0.00000003  0.95D-11  0.67D-13    84.84
   11     1     1     1.08571122    -0.32460915  -184.13915833    -0.00000000    -0.00000002  0.20D-11  0.10D-13    93.16

 Energies without level shift correction:

   11     1     1     1.08571122    -0.30746691  -184.12201608

 Energy contributions for state 1.1:
 ===================================

            Energy contr.      SQ.Norm of FOWF
 Space I     -0.00551056          0.00261649
 Space S     -0.12168197          0.04061627
 Space P     -0.18027438          0.04247846


 =====================================
 Analysis of CPU times by interactions
 =====================================

       I      S      P

 I   2.3%
 S  15.6%  33.4%
 P   0.7%  36.2%   0.1%

 Initialization:   6.4%
 Other:            5.3%

 Total CPU:       93.2 seconds
 =====================================


 Initialize record     7000.1
 Now solve CP-CASPT2 equations

 A level shift of 0.20 is applied.

  ITER. STATE  ROOT     SQ.NORM     CORR.ENERGY   TOTAL ENERGY   ENERGY CHANGE       DEN1      VAR(S)    VAR(P)      TIME
    1     1     1     1.05323210    -0.01615698  -183.83070615    -0.01615698    -0.36703587  0.51D-01  0.52D-01   114.31
    2     1     1     1.10924139    -0.39970188  -184.21425105    -0.38354490    -0.00414384  0.72D-03  0.23D-03   122.86
    3     1     1     1.11134297    -0.40300412  -184.21755330    -0.00330225    -0.00208330  0.29D-04  0.43D-05   131.38
    4     1     1     1.11175814    -0.40317634  -184.21772552    -0.00017222    -0.00008696  0.16D-05  0.23D-06   139.79
    5     1     1     1.11185082    -0.40319916  -184.21774834    -0.00002282    -0.00006600  0.14D-06  0.10D-07   148.14
    6     1     1     1.11186367    -0.40320201  -184.21775119    -0.00000286    -0.00000134  0.15D-07  0.74D-09   156.49
    7     1     1     1.11186845    -0.40320300  -184.21775217    -0.00000098    -0.00000338  0.22D-08  0.56D-10   164.82
    8     1     1     1.11186890    -0.40320308  -184.21775226    -0.00000009     0.00000018  0.36D-09  0.57D-11   173.13
    9     1     1     1.11186923    -0.40320315  -184.21775232    -0.00000007    -0.00000026  0.67D-10  0.67D-12   181.50
   10     1     1     1.11186923    -0.40320315  -184.21775232     0.00000000     0.00000004  0.13D-10  0.93D-13   189.79
   11     1     1     1.11186926    -0.40320315  -184.21775233    -0.00000001    -0.00000003  0.27D-11  0.14D-13   198.08

 Energies without level shift correction:

   11     1     1     1.11186926    -0.38082930  -184.19537848

 Energy contributions for state 1.1:
 ===================================

            Energy contr.      SQ.Norm of FOWF
 Space I     -0.00780468          0.00379122
 Space S     -0.15689785          0.05560292
 Space P     -0.21612677          0.05247513


 =====================================
 Analysis of CPU times by interactions
 =====================================

       I      S      P

 I   1.1%
 S  14.4%  31.3%
 P   0.3%  34.1%   0.1%

 Initialization:  48.9%
 Other:          -30.2%

 Total CPU:      198.1 seconds
 =====================================



 Reference coefficients greater than 0.0500000
 =============================================
 22222//00220           0.9531711
 22222//00202          -0.1266932
 22220//20220          -0.1100161
 2222///\02/\           0.0704884
 2222///\02\/          -0.0686653
 222/2\//0220          -0.0650893
 2222/\//02/\           0.0598254



 RESULTS FOR STATE 1.1
 =====================

 Coefficient of reference function:   C(0) = 1.00000000 (fixed)   1.00000000 (relaxed)

 Energy contributions of configuration classes

 CLASS          SQ.NORM        ECORR1        ECORR2
 +++++++++++++++++++++++++++++++++++++++++++++++++++
 Internals    0.00379122   -0.00654620    0.27906782
 Singles      0.05560292   -0.13794643   -0.25131772
 Pairs        0.05247513   -0.19725876   -0.35235925
 Total        1.11186926   -0.34175140   -0.32460915
 +++++++++++++++++++++++++++++++++++++++++++++++++++


 Reference energy                    -183.81454918
 Nuclear energy                        51.84079208
 Kinetic energy                       184.21079468
 One electron energy                 -353.52250064
 Two electron energy                  117.54255023
 Virial quotient                       -0.99961112
 Correlation energy                    -0.32460915
 !RSPT2 STATE 1.1 Energy             -184.139158325454

 Properties without orbital relaxation:

 !RSPT2 STATE 1.1 Dipole moment         0.12473165    -0.06737915     0.00000000
 Dipole moment /Debye                   0.31701547    -0.17124950     0.00000000


 **********************************************************************************************************************************


 PROGRAM * MULTI (Direct Multiconfiguration SCF)       Authors: P.J. Knowles, H.-J. Werner (1984)     S.T. Elbert (1988)


 Number of closed-shell orbitals:   5 (   5   0 )
 Number of active  orbitals:       10 (   7   3 )
 Number of external orbitals:      54 (  36  18 )

 State symmetry 1

 Number of electrons:    12    Spin symmetry=Triplet   Space symmetry=1
 Number of states:        1
 Number of CSFs:      10374
 
 Maximum number of shells:             6
 Maximum number of spin couplings:   297

 Storage for configuration lists   23753, coupling coefficients1494454, address lists 248643

 Molecular orbitals read from record     2140.2  Type=MCSCF/NATURAL (state 1.1)

 Wavefunction dump at record             3140.4

 Convergence thresholds  0.10E-04 (gradient)  0.10E-07 (energy)  0.10E-02 (step length)

 Eigenvalues of redundancy matrix
   1- 10   -0.000000   -0.000000   -0.000000   -0.000000   -0.000000   -0.000000   -0.000000   -0.000000   -0.000000    0.000000
  11- 20    0.000000    0.000000    0.000000    0.000000    0.000000    0.000000    0.000000    0.000000    0.000000    0.000000
  21- 24    0.000000    0.000000    0.000000    0.000000

 Number of orbital rotations:      521   (    35 Core/Active    180 Core/Virtual   0 Active/Active    306 Active/Virtual)
 Total number of variables:      10895


 ITER. MIC  NCI  NEG     ENERGY(VAR)     ENERGY(PROJ)   ENERGY CHANGE     GRAD(0)  GRAD(ORB)   GRAD(CI)     STEP       TIME

   1   27   20    0    -183.81454918    -183.81454918    0.00000000    0.00000052 0.00000000 0.00000020  0.00D+00      1.03

 Warning: orbitals not optimized!

 Solving MCSCF z-vector equations for state  1.1, requested accuracy=      0.10D-05
 Convergence reached in  19 iterations ( 19 expansion vectors), accuracy=  0.66D-06

 Properties including orbital relaxation:

 !RSPT2 dipole moments (ED):            0.19722903    -0.07450672     0.00000000

 RSPT2 Gradient info saved on record         5200.1

 CPU-time for rhs:           31.10 sec
 CPU-time for cpmcscf:        3.20 sec
 CPU-time for densities:      0.00 sec


 **********************************************************************************************************************************
 DATASETS  * FILE   NREC   LENGTH (MB)   RECORD NAMES
              1      25      153.92       500      610      700      900      950      970     1000      129      960     1100   
                                          VAR    BASINP    GEOM    SYMINP    ZMAT    AOBASIS   BASIS     P2S    ABASIS      S 
                                         1400     1410     1200     1210     1080     1600     1650     1700     1380     7000   
                                           T        V       H0       H01     AOSYM     SMH    MOLCAS    OPER     JKOP   
                                         7001     5200     5210     7009     7005   
                                                 RS2GRAD  RS2GRAD    

              2       5        5.45       700     1000      520     2100     2140   
                                         GEOM     BASIS   MCVARS     RHF     MCSCF   

 PROGRAMS   *        TOTAL       RS2    CASSCF       RHF       INT
 CPU TIMES  *       265.53    262.53      2.47      0.13      0.26
 REAL TIME  *       277.19 SEC
 DISK USED  *        99.69 MB      
 SF USED    *       611.64 MB      
 GA USED    *         0.00 MB       (max)       0.00 MB       (current)
 **********************************************************************************************************************************
 
 STEP  1 RHF-SCF        O.K.    
 STEP  2 CASSCF         O.K.    
 STEP  3 RS2            O.K.    
 SETTING MOLPRO_ENERGY  =      -184.13915833  AU                              
 MOLPRO_ENERGY    =       -0.184139158325454E+03 AU


 PROGRAM * ALASKA (Gradient of the energy)     Author: R. Lindh


 RSPT2 Gradient info restored from record    5200.1

 Number of core orbitals:           3 (   3   0 )
 Number of closed-shell orbitals:   2 (   2   0 )
 Number of active  orbitals:       10 (   7   3 )
 Number of external orbitals:      54 (  36  18 )

 Integral thresholds in T2TRAN:            1.0D-10 (PROD)

 Available memory for Transformation:1277797029 words
 Memory needed for incore algorithm:     402848 words
 Minimum memory needed:                  148238 words

 Memory used for transformation:           0.40 MW
 Available memory for gradients:        1279.39 MW

 CPU for transformation:                   0.02 sec
 CPU for integrals and gradient:           1.25 sec
 Total CPU:                                1.27 sec

 Prescreening statistics:
 ========================

 Total number of shell quadruplets:        2.68D+02
 Number of shell quadruplets processed:    2.68D+02 (100.00%)

 RSPT2 GRADIENT FOR STATE 1.1

 Atom          dE/dx               dE/dy               dE/dz

   1        -0.063339884         0.039278743         0.000000000
   2         0.000258109        -0.014603311         0.000000000
   3         0.063081774        -0.024675432         0.000000000

 Nuclear force contribution to virial =        -0.223721882


 **********************************************************************************************************************************
 DATASETS  * FILE   NREC   LENGTH (MB)   RECORD NAMES
              1      25      153.92       500      610      700      900      950      970     1000      129      960     1100   
                                          VAR    BASINP    GEOM    SYMINP    ZMAT    AOBASIS   BASIS     P2S    ABASIS      S 
                                         1400     1410     1200     1210     1080     1600     1650     1700     1380     7000   
                                           T        V       H0       H01     AOSYM     SMH    MOLCAS    OPER     JKOP   
                                         7001     5200     5210     7009     7005   
                                                 RS2GRAD  RS2GRAD    

              2       5        5.45       700     1000      520     2100     2140   
                                         GEOM     BASIS   MCVARS     RHF     MCSCF   

 PROGRAMS   *        TOTAL     FORCE       RS2    CASSCF       RHF       INT
 CPU TIMES  *       267.79      2.26    262.53      2.47      0.13      0.26
 REAL TIME  *       280.91 SEC
 DISK USED  *        99.69 MB      
 SF USED    *       611.64 MB      
 GA USED    *         0.00 MB       (max)       0.00 MB       (current)
 **********************************************************************************************************************************

 *** MOLGRAD
                                                                                                                                                                                                                                                                

     NN          GRADX             GRADY        GRADZ
    1.0   -6.33398839D-02    3.92787430D-02   0.0D+00
    2.0    2.58109448D-04   -1.46033110D-02   0.0D+00
    3.0    6.30817744D-02   -2.46754320D-02   0.0D+00
                                                  

 RS2/aug-cc-pVDZ energy=   -184.139158325454

        RS2             CASSCF          RHF-SCF 
   -184.13915833   -183.81454918   -183.65535408
 **********************************************************************************************************************************
 Molpro calculation terminated
 Variable memory released
