
 Primary working directories    : /scratch/kmoore
 Secondary working directories  : /scratch/kmoore
 Wavefunction directory         : /home/kmoore/wfu/
 Main file repository           : /scratch/kmoore/

 SHA1      : f86d681fdec979508940bfbbc93fd7db66630888
 NAME      : 2015.1.24
 ARCHNAME  : linux/x86_64
 FC        : /blues/gpfs/home/software/spack-0.10.1/opt/spack/linux-centos7-x86_64/intel-17.0.4/intel-mpi-2017.3-dfphq6kavje2olnichisvjjndtridrok/compilers_and_libraries_2017.4.196/linux/mpi/intel64/bin/mpiifort
 BLASLIB   : -L/blues/gpfs/home/software/spack-0.10.1/opt/spack/linux-centos7-x86_64/intel-17.0.4/intel-mkl-2017.3.196-jyjmyutcol3veyt4bazftyqkxxzmfd7o/pkg/compilers_and_libraries_2017.4.196/linux/mkl/lib/intel64 -lmkl_intel_ilp64 -lmkl_intel_thread -lmkl_core
 id        : anlgov

 Nodes     nprocs
 b460         3
 Number of processes for MPI-2 version of Molpro:   nprocs(total)=    4   nprocs(compute)=    3   nprocs(helper)=    1

 Using customized tuning parameters: mindgm=7; mindgv=16; mindgc=1; mindgr=1; noblas=0; minvec=7
 default implementation of scratch files=sf  

                                                                                 !
 memory,1280,m
                                                                                 ! wavefunction template
 angstrom
 geometry = {
            3
  ANT Direct Dynamics Calculation
 N           0.2554606017       -0.2913338500        0.0000000000
 N           1.2895630647        0.1678060609        0.0000000000
 O          -1.3655056671        0.1016467871        0.0000000000
 }
 set,spin=0
 set,charge=0
 basis=aug-cc-pvdz
 nn(1)=1
 nn(2)=2
 nn(3)=3
 {rhf,,maxit=300}
 {casscf,maxit=40
 closed,5
 wf,22,1,0,0}
 {rs2,shift=0.20}
 
 status,all,crash
 
 molpro_energy=energy
 show[1,e25.15],molpro_energy
 {force,varsav}
 text,MOLGRAD
 table,nn,gradx,grady,gradz
 ftyp,f,d,d,d

 Variables initialized (889), CPU time= 0.01 sec
 Commands  initialized (702), CPU time= 0.01 sec, 572 directives.
 Default parameters read. Elapsed time= 0.07 sec

 Checking input...
 Passed
1


                                         ***  PROGRAM SYSTEM MOLPRO  ***
                                       Copyright, TTI GmbH Stuttgart, 2015
                                    Version 2015.1 linked Sep 21 2017 09:51:13


 **********************************************************************************************************************************
 LABEL *                                                                                 
  64 bit mpp version                                                                     DATE: 17-Aug-21          TIME: 10:39:14  
 **********************************************************************************************************************************

 SHA1:             f86d681fdec979508940bfbbc93fd7db66630888
 **********************************************************************************************************************************
 ZUNIT=ANG
 

Geometry recognized as XYZ

 SETTING SPIN           =     0.00000000D+00                                  
 SETTING CHARGE         =     0.00000000D+00                                  

 Variable memory set to 1280000000 words,  buffer space   230000 words

 SETTING BASIS          =    AUG-CC-PVDZ
 SETTING NN(1)          =         1.00000000                                  
 SETTING NN(2)          =         2.00000000                                  
 SETTING NN(3)          =         3.00000000                                  


 Recomputing integrals since basis changed


 Using spherical harmonics

 Library entry N      S aug-cc-pVDZ          selected for orbital group  1
 Library entry N      P aug-cc-pVDZ          selected for orbital group  1
 Library entry N      D aug-cc-pVDZ          selected for orbital group  1
 Library entry O      S aug-cc-pVDZ          selected for orbital group  2
 Library entry O      P aug-cc-pVDZ          selected for orbital group  2
 Library entry O      D aug-cc-pVDZ          selected for orbital group  2


 PROGRAM * SEWARD (Integral evaluation for generally contracted gaussian basis sets)     Author: Roland Lindh, 1990

 Geometry written to block  1 of record 700


 Point group  Cs  



 ATOMIC COORDINATES

 NR  ATOM    CHARGE       X              Y              Z

   1  N       7.00    0.482750573   -0.550541187    0.000000000
   2  N       7.00    2.436921013    0.317107497    0.000000000
   3  O       8.00   -2.580431732    0.192084589    0.000000000

 Bond lengths in Bohr (Angstrom)

 1-2  2.138129170  1-3  3.151916699
     ( 1.131449231)     ( 1.667922488)

 Bond angles

  2-1-3  142.43121911

 NUCLEAR CHARGE:                   22
 NUMBER OF PRIMITIVE AOS:         111
 NUMBER OF SYMMETRY AOS:          105
 NUMBER OF CONTRACTIONS:           69   (  48A'  +  21A"  )
 NUMBER OF CORE ORBITALS:           3   (   3A'  +   0A"  )
 NUMBER OF VALENCE ORBITALS:       12   (   9A'  +   3A"  )


 NUCLEAR REPULSION ENERGY   51.84199878

 Eigenvalues of metric

         1 0.134E-03 0.570E-03 0.265E-02 0.466E-02 0.106E-01 0.184E-01 0.325E-01 0.376E-01
         2 0.104E-01 0.373E-01 0.818E-01 0.161E+00 0.173E+00 0.254E+00 0.328E+00 0.361E+00


 Contracted 2-electron integrals neglected if value below      1.0D-11
 AO integral compression algorithm  1   Integral accuracy      1.0D-11

     9.437 MB (compressed) written to integral file ( 58.1%)

     Node minimum: 3.146 MB, node maximum: 3.146 MB


 NUMBER OF SORTED TWO-ELECTRON INTEGRALS:     511749.     BUFFER LENGTH:  32768
 NUMBER OF SEGMENTS:   1  SEGMENT LENGTH:     511749      RECORD LENGTH: 524288

 Memory used in sort:       1.07 MW

 SORT1 READ     2065561. AND WROTE      494012. INTEGRALS IN      2 RECORDS. CPU TIME:     0.02 SEC, REAL TIME:     0.03 SEC
 SORT2 READ     1485898. AND WROTE     1533840. INTEGRALS IN     36 RECORDS. CPU TIME:     0.02 SEC, REAL TIME:     0.02 SEC

 Node minimum:      510811.  Node maximum:      511749. integrals

 OPERATOR DM      FOR CENTER  0  COORDINATES:    0.000000    0.000000    0.000000


 **********************************************************************************************************************************
 DATASETS  * FILE   NREC   LENGTH (MB)   RECORD NAMES
              1      18       19.21       500      610      700      900      950      970     1000      129      960     1100   
                                          VAR    BASINP    GEOM    SYMINP    ZMAT    AOBASIS   BASIS     P2S    ABASIS      S 
                                         1400     1410     1200     1210     1080     1600     1650     1700   
                                           T        V       H0       H01     AOSYM     SMH    MOLCAS    OPER   

 PROGRAMS   *        TOTAL       INT
 CPU TIMES  *         0.41      0.26
 REAL TIME  *         0.99 SEC
 DISK USED  *        32.11 MB      
 GA USED    *         0.00 MB       (max)       0.00 MB       (current)
 **********************************************************************************************************************************


 PROGRAM * RHF-SCF (CLOSED SHELL)       Authors: W. Meyer, H.-J. Werner


 NUMBER OF ELECTRONS:      11+   11-
 CONVERGENCE THRESHOLDS:    1.00E-06 (Density)    1.00E-07 (Energy)
 MAX. NUMBER OF ITERATIONS:      300
 INTERPOLATION TYPE:            DIIS
 INTERPOLATION STEPS:              2 (START)      1 (STEP)
 LEVEL SHIFTS:                  0.00 (CLOSED)  0.00 (OPEN) 



 Orbital guess generated from atomic densities. Full valence occupancy:   12   3

 Molecular orbital dump at record        2100.2

 Initial occupancy:   9   2

 ITERATION    DDIFF          GRAD             ENERGY        2-EL.EN.            DIPOLE MOMENTS         DIIS   ORB.
    1      0.000D+00      0.000D+00      -183.39654786    232.339678    2.40477   -0.56075    0.00000    0    start
    2      0.000D+00      0.208D-01      -183.46573059    235.539561    0.01099    0.30978    0.00000    1    diag
    3      0.440D-01      0.208D-01      -183.61489668    235.542302    0.87790   -0.08745    0.00000    2    diag
    4      0.226D-01      0.300D-02      -183.62642897    235.266798    0.77869   -0.06589    0.00000    3    diag
    5      0.619D-02      0.141D-02      -183.62935967    235.485126    0.67189   -0.08074    0.00000    4    diag
    6      0.385D-02      0.498D-03      -183.62961493    235.525115    0.67025   -0.06587    0.00000    5    diag
    7      0.123D-02      0.322D-03      -183.62966990    235.497265    0.64642   -0.07219    0.00000    6    diag
    8      0.469D-03      0.853D-04      -183.62967895    235.502543    0.64693   -0.07281    0.00000    7    diag
    9      0.199D-03      0.357D-04      -183.62968229    235.503274    0.64697   -0.07308    0.00000    8    diag
   10      0.122D-03      0.229D-04      -183.62968446    235.503088    0.64748   -0.07352    0.00000    9    orth
   11      0.110D-03      0.155D-04      -183.62968609    235.503231    0.64808   -0.07390    0.00000    9    diag
   12      0.140D-03      0.768D-05      -183.62968648    235.503225    0.64854   -0.07416    0.00000    9    diag
   13      0.840D-04      0.298D-05      -183.62968652    235.503186    0.64863   -0.07420    0.00000    9    diag
   14      0.214D-04      0.145D-05      -183.62968653    235.503184    0.64867   -0.07421    0.00000    9    diag
   15      0.932D-05      0.474D-06      -183.62968653    235.503164    0.64868   -0.07420    0.00000    9    diag
   16      0.298D-05      0.123D-06      -183.62968653    235.503165    0.64868   -0.07421    0.00000    9    diag
   17      0.520D-06      0.530D-07      -183.62968653    235.503168    0.64869   -0.07421    0.00000    0    orth

 Final occupancy:   9   2

 !RHF STATE 1.1 Energy               -183.629686525964
 Nuclear energy                        51.84199878
 One-electron energy                 -353.22326907
 Two-electron energy                  117.75158376
 Virial quotient                       -1.00334943
 !RHF STATE 1.1 Dipole moment           0.64868615    -0.07420602     0.00000000
 Dipole moment /Debye                   1.64868775    -0.18860052     0.00000000

 Orbital energies:

         1.1          2.1          3.1          4.1          5.1          6.1          7.1          8.1          9.1         10.1
    -20.664908   -15.774708   -15.758248    -1.507518    -1.268199    -0.831123    -0.681392    -0.661948    -0.524823     0.014352

        11.1
      0.101037

         1.2          2.2          3.2          4.2
     -0.661138    -0.526047     0.093531     0.150913

 HOMO      9.1    -0.524823 =     -14.2812eV
 LUMO     10.1     0.014352 =       0.3905eV
 LUMO-HOMO         0.539176 =      14.6717eV


 **********************************************************************************************************************************
 DATASETS  * FILE   NREC   LENGTH (MB)   RECORD NAMES
              1      18       19.21       500      610      700      900      950      970     1000      129      960     1100   
                                          VAR    BASINP    GEOM    SYMINP    ZMAT    AOBASIS   BASIS     P2S    ABASIS      S 
                                         1400     1410     1200     1210     1080     1600     1650     1700   
                                           T        V       H0       H01     AOSYM     SMH    MOLCAS    OPER   

              2       4        2.84       700     1000      520     2100   
                                         GEOM     BASIS   MCVARS     RHF  

 PROGRAMS   *        TOTAL       RHF       INT
 CPU TIMES  *         0.52      0.11      0.26
 REAL TIME  *         1.14 SEC
 DISK USED  *        99.02 MB      
 SF USED    *         0.01 MB      
 GA USED    *         0.00 MB       (max)       0.00 MB       (current)
 **********************************************************************************************************************************


 PROGRAM * MULTI (Direct Multiconfiguration SCF)       Authors: P.J. Knowles, H.-J. Werner (1984)     S.T. Elbert (1988)


 Number of closed-shell orbitals:   5 (   5   0 )
 Number of active  orbitals:       10 (   7   3 )
 Number of external orbitals:      54 (  36  18 )

 State symmetry 1

 Number of electrons:    12    Spin symmetry=Singlet   Space symmetry=1
 Number of states:        1
 Number of CSFs:       7028   (22148 determinants, 44100 intermediate states)

 Molecular orbitals read from record     2100.2  Type=RHF/CANONICAL (state 1.1)

 Wavefunction dump at record             2140.2

 Convergence thresholds  0.10E-01 (gradient)  0.10E-05 (energy)  0.10E-02 (step length)

 Number of orbital rotations:      521   (    35 Core/Active    180 Core/Virtual   0 Active/Active    306 Active/Virtual)
 Total number of variables:      22669


 ITER. MIC  NCI  NEG     ENERGY(VAR)     ENERGY(PROJ)   ENERGY CHANGE     GRAD(0)  GRAD(ORB)   GRAD(CI)     STEP       TIME

   1   60   26    0    -183.67379933    -183.80385621   -0.13005689    0.06211399 0.00012837 0.02559931  0.14D+01      0.53
   2   43   39    0    -183.80964310    -183.81715008   -0.00750698    0.04258157 0.00000291 0.00267931  0.39D+00      1.35
   3   50   33    0    -183.81791825    -183.81820736   -0.00028911    0.01332887 0.00000001 0.00117732  0.71D-01      2.09
   4   50   32    0    -183.81822167    -183.81824188   -0.00002021    0.00205558 0.00000001 0.00104431  0.24D-01      2.83
   5   51   32    0    -183.81824774    -183.81826383   -0.00001610    0.00123088 0.00000001 0.00121290  0.25D-01      3.56
   6   48   32    0    -183.81827160    -183.81829818   -0.00002658    0.00151297 0.00000001 0.00145503  0.31D-01      4.28
   7   50   32    0    -183.81832280    -183.81838951   -0.00006671    0.00239958 0.00000001 0.00161805  0.39D-01      4.99
   8   51   32    0    -183.81848688    -183.81862991   -0.00014302    0.00435568 0.00000001 0.00134799  0.44D-01      5.69
   9   53   32    0    -183.81874571    -183.81883808   -0.00009238    0.00476427 0.00000000 0.00080816  0.38D-01      6.43
  10   54   30    0    -183.81886725    -183.81888848   -0.00002122    0.00251226 0.00000000 0.00043619  0.22D-01      7.10
  11   46   26    0    -183.81889112    -183.81889280   -0.00000169    0.00080460 0.00000006 0.00011545  0.65D-02      7.70
  12   40   21    0    -183.81889284    -183.81889285   -0.00000001    0.00006573 0.00000080 0.00004493  0.38D-03      8.25

 ** WVFN ****  CONVERGENCE REACHED, FINAL GRADIENT:  0.41D-05


 First order charge density matrix for state 1.1 saved on record  2140.2 (density set 1)

 Results for state 1.1
 =====================

 !MCSCF STATE 1.1 Energy             -183.818892846400
 Nuclear energy                        51.84199878
 Kinetic energy                       183.40351712
 One electron energy                 -353.42661594
 Two electron energy                  117.76572432
 Virial ratio                           2.00226482

 !MCSCF STATE 1.1 Dipole moment         0.76580515    -0.14113769     0.00000000
 Dipole moment /Debye                   1.94635507    -0.35871274     0.00000000


 Natural orbital dump at molpro section  2140.2    (Orbital set 2)



 **********************************************************************************************************************************
 DATASETS  * FILE   NREC   LENGTH (MB)   RECORD NAMES
              1      19       22.92       500      610      700      900      950      970     1000      129      960     1100   
                                          VAR    BASINP    GEOM    SYMINP    ZMAT    AOBASIS   BASIS     P2S    ABASIS      S 
                                         1400     1410     1200     1210     1080     1600     1650     1700     1380   
                                           T        V       H0       H01     AOSYM     SMH    MOLCAS    OPER     JKOP   

              2       5        5.45       700     1000      520     2100     2140   
                                         GEOM     BASIS   MCVARS     RHF     MCSCF   

 PROGRAMS   *        TOTAL    CASSCF       RHF       INT
 CPU TIMES  *         8.97      8.45      0.11      0.26
 REAL TIME  *        11.90 SEC
 DISK USED  *        99.02 MB      
 SF USED    *        29.09 MB      
 GA USED    *         0.00 MB       (max)       0.00 MB       (current)
 **********************************************************************************************************************************


 PROGRAM * RS2 (Multireference RS Perturbation Theory)     Authors: H.-J. Werner (1993), P. Celani (1998)


 Level shift= 0.20

 Convergence thresholds:  THRVAR = 1.00D-10  THRDEN = 1.00D-08

 Number of optimized states:  1  Roots:   1
 Number of reference states:  1  Roots:   1

 Reference symmetry:                   1   Singlet 
 Number of electrons:                 22
 Maximum number of shells:             7
 Maximum number of spin couplings:   132

 Reference space:     3493 conf     7028 CSFs
 N elec internal:    24795 conf    63360 CSFs
 N-1 el internal:    36100 conf   161700 CSFs
 N-2 el internal:    36132 conf   283696 CSFs

 Number of electrons in valence space:                     16
 Maximum number of open shell orbitals in reference space:  8
 Maximum number of open shell orbitals in internal spaces: 12


 Number of core orbitals:           3 (   3   0 )
 Number of closed-shell orbitals:   2 (   2   0 )
 Number of active  orbitals:       10 (   7   3 )
 Number of external orbitals:      54 (  36  18 )

 Molecular orbitals read from record     2140.2  Type=MCSCF/NATURAL (state 1.1)

 Coulomb and exchange operators available. No transformation done.

 Number of p-space configurations:   2

 Reference wavefunction optimized for reference space (refopt=1)

 State     Reference Energy 
   1        -183.81889285

 Number of blocks in overlap matrix:     4   Smallest eigenvalue:  0.13D-01
 Number of N-2 electron functions:     144
 Number of N-1 electron functions:  161700

 Number of internal configurations:                32028
 Number of singly external configurations:       4373208
 Number of doubly external configurations:        108216
 Total number of contracted configurations:      4513452
 Total number of uncontracted configurations:  216814344

 Weight factors for SA-density in H0:    1.000000

 FIMAX=  0.34D+00  FXMAX=  0.10D-06  DIAG=  F  F  NOREF=1  NOINT=0  IHPPD=2

 Nuclear energy:                      51.84199878
 Core energy:                       -173.22039592
 Zeroth-order valence energy:        -12.84148113
 Zeroth-order total energy:         -134.21987828
 First-order energy:                 -49.59901457

 Using uncontracted singles

 Diagonal Coupling coefficients finished.               Storage:  575997 words, CPU-Time:      0.00 seconds.
 Energy denominators for pairs finished in 0 passes.    Storage:  568962 words, CPU-time:      0.00 seconds.

 A level shift of 0.20 is applied.

  ITER. STATE  ROOT     SQ.NORM     CORR.ENERGY   TOTAL ENERGY   ENERGY CHANGE       DEN1      VAR(S)    VAR(P)      TIME
    1     1     1     1.03221323    -0.00644265  -183.82533549    -0.00644265    -0.29293471  0.32D-01  0.43D-01     8.15
    2     1     1     1.08013680    -0.31762364  -184.13651648    -0.31118099    -0.00285884  0.41D-03  0.19D-03    13.50
    3     1     1     1.08180594    -0.32012228  -184.13901513    -0.00249865    -0.00153190  0.17D-04  0.34D-05    18.89
    4     1     1     1.08208481    -0.32024426  -184.13913711    -0.00012198    -0.00008389  0.81D-06  0.16D-06    24.19
    5     1     1     1.08214888    -0.32026022  -184.13915307    -0.00001596    -0.00004424  0.53D-07  0.80D-08    29.43
    6     1     1     1.08216018    -0.32026268  -184.13915552    -0.00000245    -0.00000402  0.39D-08  0.52D-09    34.66
    7     1     1     1.08216337    -0.32026332  -184.13915617    -0.00000065    -0.00000197  0.32D-09  0.38D-10    39.93
    8     1     1     1.08216401    -0.32026345  -184.13915630    -0.00000013    -0.00000023  0.28D-10  0.31D-11    45.10
    9     1     1     1.08216420    -0.32026349  -184.13915634    -0.00000004    -0.00000011  0.26D-11  0.27D-12    50.25
   10     1     1     1.08216425    -0.32026350  -184.13915634    -0.00000001    -0.00000002  0.26D-12  0.24D-13    55.47
   11     1     1     1.08216427    -0.32026350  -184.13915635    -0.00000000    -0.00000001  0.27D-13  0.24D-14    60.66

 Energies without level shift correction:

   11     1     1     1.08216427    -0.30383065  -184.12272349

 Energy contributions for state 1.1:
 ===================================

            Energy contr.      SQ.Norm of FOWF
 Space I     -0.00664869          0.00345961
 Space S     -0.11100965          0.03538603
 Space P     -0.18617231          0.04331863


 =====================================
 Analysis of CPU times by interactions
 =====================================

       I      S      P

 I   2.9%
 S  21.5%  20.5%
 P   1.0%  39.0%   0.0%

 Initialization:   8.4%
 Other:            6.8%

 Total CPU:       60.7 seconds
 =====================================


 Initialize record     7000.1
 Now solve CP-CASPT2 equations

 A level shift of 0.20 is applied.

  ITER. STATE  ROOT     SQ.NORM     CORR.ENERGY   TOTAL ENERGY   ENERGY CHANGE       DEN1      VAR(S)    VAR(P)      TIME
    1     1     1     1.04580436    -0.01580956  -183.83470241    -0.01580956    -0.35797646  0.42D-01  0.53D-01    73.45
    2     1     1     1.10262196    -0.39140302  -184.21029587    -0.37559346    -0.00422705  0.57D-03  0.26D-03    78.78
    3     1     1     1.10504848    -0.39480538  -184.21369823    -0.00340236    -0.00203589  0.24D-04  0.48D-05    84.06
    4     1     1     1.10544446    -0.39497746  -184.21387030    -0.00017207    -0.00012860  0.12D-05  0.23D-06    89.31
    5     1     1     1.10553904    -0.39500091  -184.21389375    -0.00002345    -0.00006107  0.78D-07  0.12D-07    94.60
    6     1     1     1.10555596    -0.39500457  -184.21389742    -0.00000367    -0.00000626  0.58D-08  0.78D-09    99.90
    7     1     1     1.10556073    -0.39500555  -184.21389839    -0.00000097    -0.00000280  0.48D-09  0.57D-10   105.13
    8     1     1     1.10556171    -0.39500575  -184.21389859    -0.00000020    -0.00000036  0.43D-10  0.46D-11   110.34
    9     1     1     1.10556200    -0.39500581  -184.21389865    -0.00000006    -0.00000017  0.40D-11  0.40D-12   115.52
   10     1     1     1.10556208    -0.39500582  -184.21389867    -0.00000001    -0.00000002  0.40D-12  0.37D-13   120.71
   11     1     1     1.10556211    -0.39500582  -184.21389867    -0.00000000    -0.00000001  0.41D-13  0.36D-14   125.90
   12     1     1     1.10556211    -0.39500582  -184.21389867    -0.00000000    -0.00000000  0.45D-14  0.38D-15   131.11

 Energies without level shift correction:

   12     1     1     1.10556211    -0.37389340  -184.19278625

 Energy contributions for state 1.1:
 ===================================

            Energy contr.      SQ.Norm of FOWF
 Space I     -0.00971873          0.00520339
 Space S     -0.14149779          0.04706954
 Space P     -0.22267687          0.05328917


 =====================================
 Analysis of CPU times by interactions
 =====================================

       I      S      P

 I   1.3%
 S  20.3%  19.9%
 P   0.4%  37.9%   0.0%

 Initialization:  44.3%
 Other:          -24.1%

 Total CPU:      131.1 seconds
 =====================================



 Reference coefficients greater than 0.0500000
 =============================================
 222222000220           0.9452389
 222222000202          -0.1273502
 22222/\002/\          -0.1216725
 222220200220          -0.1187306
 2222/20\0/2\           0.0702346
 222202020220          -0.0696406
 222/2200\2/\           0.0560036
 222202/\0220          -0.0550845
 22222//002\\          -0.0544494



 RESULTS FOR STATE 1.1
 =====================

 Coefficient of reference function:   C(0) = 1.00000000 (fixed)   1.00000000 (relaxed)

 Energy contributions of configuration classes

 CLASS          SQ.NORM        ECORR1        ECORR2
 +++++++++++++++++++++++++++++++++++++++++++++++++++
 Internals    0.00520339   -0.00802377    0.27320428
 Singles      0.04706954   -0.12519891   -0.22844271
 Pairs        0.05328917   -0.20347367   -0.36502507
 Total        1.10556211   -0.33669635   -0.32026350
 +++++++++++++++++++++++++++++++++++++++++++++++++++


 Reference energy                    -183.81889285
 Nuclear energy                        51.84199878
 Kinetic energy                       183.63478702
 One electron energy                 -353.19729231
 Two electron energy                  117.21613718
 Virial quotient                       -1.00274659
 Correlation energy                    -0.32026350
 !RSPT2 STATE 1.1 Energy             -184.139156346558

 Properties without orbital relaxation:

 !RSPT2 STATE 1.1 Dipole moment         0.76905331    -0.13979953     0.00000000
 Dipole moment /Debye                   1.95461050    -0.35531168     0.00000000


 **********************************************************************************************************************************


 PROGRAM * MULTI (Direct Multiconfiguration SCF)       Authors: P.J. Knowles, H.-J. Werner (1984)     S.T. Elbert (1988)


 Number of closed-shell orbitals:   5 (   5   0 )
 Number of active  orbitals:       10 (   7   3 )
 Number of external orbitals:      54 (  36  18 )

 State symmetry 1

 Number of electrons:    12    Spin symmetry=Singlet   Space symmetry=1
 Number of states:        1
 Number of CSFs:       7028
 
 Maximum number of shells:             7
 Maximum number of spin couplings:   132

 Storage for configuration lists   24068, coupling coefficients 301503, address lists 255468

 Molecular orbitals read from record     2140.2  Type=MCSCF/NATURAL (state 1.1)

 Wavefunction dump at record             3140.4

 Convergence thresholds  0.10E-04 (gradient)  0.10E-07 (energy)  0.10E-02 (step length)

 Eigenvalues of redundancy matrix
   1- 10   -0.000000   -0.000000   -0.000000   -0.000000   -0.000000   -0.000000   -0.000000   -0.000000   -0.000000   -0.000000
  11- 20   -0.000000   -0.000000    0.000000    0.000000    0.000000    0.000000    0.000000    0.000000    0.000000    0.000000
  21- 24    0.000000    0.000000    0.000000    0.000000

 Number of orbital rotations:      521   (    35 Core/Active    180 Core/Virtual   0 Active/Active    306 Active/Virtual)
 Total number of variables:       7549


 ITER. MIC  NCI  NEG     ENERGY(VAR)     ENERGY(PROJ)   ENERGY CHANGE     GRAD(0)  GRAD(ORB)   GRAD(CI)     STEP       TIME

   1   40   21    0    -183.81889285    -183.81889285    0.00000000    0.00000418 0.00000000 0.00000014  0.00D+00      0.74

 Warning: orbitals not optimized!

 Solving MCSCF z-vector equations for state  1.1, requested accuracy=      0.10D-05
 Convergence reached in  24 iterations ( 24 expansion vectors), accuracy=  0.70D-06

 Properties including orbital relaxation:

 !RSPT2 dipole moments (ED):            0.82977368    -0.12496168     0.00000000

 RSPT2 Gradient info saved on record         5200.1

 CPU-time for rhs:           20.52 sec
 CPU-time for cpmcscf:        2.34 sec
 CPU-time for densities:      0.00 sec


 **********************************************************************************************************************************
 DATASETS  * FILE   NREC   LENGTH (MB)   RECORD NAMES
              1      25       97.21       500      610      700      900      950      970     1000      129      960     1100   
                                          VAR    BASINP    GEOM    SYMINP    ZMAT    AOBASIS   BASIS     P2S    ABASIS      S 
                                         1400     1410     1200     1210     1080     1600     1650     1700     1380     7000   
                                           T        V       H0       H01     AOSYM     SMH    MOLCAS    OPER     JKOP   
                                         7001     5200     5210     7009     7005   
                                                 RS2GRAD  RS2GRAD    

              2       5        5.45       700     1000      520     2100     2140   
                                         GEOM     BASIS   MCVARS     RHF     MCSCF   

 PROGRAMS   *        TOTAL       RS2    CASSCF       RHF       INT
 CPU TIMES  *       181.93    172.96      8.45      0.11      0.26
 REAL TIME  *       191.03 SEC
 DISK USED  *        99.02 MB      
 SF USED    *       354.15 MB      
 GA USED    *         0.00 MB       (max)       0.00 MB       (current)
 **********************************************************************************************************************************
 
 STEP  1 RHF-SCF        O.K.    
 STEP  2 CASSCF         O.K.    
 STEP  3 RS2            O.K.    
 SETTING MOLPRO_ENERGY  =      -184.13915635  AU                              
 MOLPRO_ENERGY    =       -0.184139156346558E+03 AU


 PROGRAM * ALASKA (Gradient of the energy)     Author: R. Lindh


 RSPT2 Gradient info restored from record    5200.1

 Number of core orbitals:           3 (   3   0 )
 Number of closed-shell orbitals:   2 (   2   0 )
 Number of active  orbitals:       10 (   7   3 )
 Number of external orbitals:      54 (  36  18 )

 Integral thresholds in T2TRAN:            1.0D-10 (PROD)

 Available memory for Transformation:1277797029 words
 Memory needed for incore algorithm:     402848 words
 Minimum memory needed:                  148238 words

 Memory used for transformation:           0.40 MW
 Available memory for gradients:        1279.39 MW

 CPU for transformation:                   0.00 sec
 CPU for integrals and gradient:           1.27 sec
 Total CPU:                                1.27 sec

 Prescreening statistics:
 ========================

 Total number of shell quadruplets:        2.68D+02
 Number of shell quadruplets processed:    2.68D+02 (100.00%)

 RSPT2 GRADIENT FOR STATE 1.1

 Atom          dE/dx               dE/dy               dE/dz

   1         0.076498175        -0.047477010         0.000000000
   2        -0.000307679         0.017655229         0.000000000
   3        -0.076190495         0.029821781         0.000000000

 Nuclear force contribution to virial =         0.270249079


 **********************************************************************************************************************************
 DATASETS  * FILE   NREC   LENGTH (MB)   RECORD NAMES
              1      25       97.21       500      610      700      900      950      970     1000      129      960     1100   
                                          VAR    BASINP    GEOM    SYMINP    ZMAT    AOBASIS   BASIS     P2S    ABASIS      S 
                                         1400     1410     1200     1210     1080     1600     1650     1700     1380     7000   
                                           T        V       H0       H01     AOSYM     SMH    MOLCAS    OPER     JKOP   
                                         7001     5200     5210     7009     7005   
                                                 RS2GRAD  RS2GRAD    

              2       5        5.45       700     1000      520     2100     2140   
                                         GEOM     BASIS   MCVARS     RHF     MCSCF   

 PROGRAMS   *        TOTAL     FORCE       RS2    CASSCF       RHF       INT
 CPU TIMES  *       184.19      2.25    172.96      8.45      0.11      0.26
 REAL TIME  *       194.75 SEC
 DISK USED  *        99.02 MB      
 SF USED    *       354.15 MB      
 GA USED    *         0.00 MB       (max)       0.00 MB       (current)
 **********************************************************************************************************************************

 *** MOLGRAD
                                                                                                                                                                                                                                                                

     NN          GRADX             GRADY        GRADZ
    1.0    7.64981746D-02   -4.74770102D-02   0.0D+00
    2.0   -3.07679286D-04    1.76552293D-02   0.0D+00
    3.0   -7.61904953D-02    2.98217808D-02   0.0D+00
                                                  

 RS2/aug-cc-pVDZ energy=   -184.139156346558

        RS2             CASSCF          RHF-SCF 
   -184.13915635   -183.81889285   -183.62968653
 **********************************************************************************************************************************
 Molpro calculation terminated
 Variable memory released
