
 Primary working directories    : /scratch/kmoore
 Secondary working directories  : /scratch/kmoore
 Wavefunction directory         : /home/kmoore/wfu/
 Main file repository           : /scratch/kmoore/

 SHA1      : f86d681fdec979508940bfbbc93fd7db66630888
 NAME      : 2015.1.24
 ARCHNAME  : linux/x86_64
 FC        : /blues/gpfs/home/software/spack-0.10.1/opt/spack/linux-centos7-x86_64/intel-17.0.4/intel-mpi-2017.3-dfphq6kavje2olnichisvjjndtridrok/compilers_and_libraries_2017.4.196/linux/mpi/intel64/bin/mpiifort
 BLASLIB   : -L/blues/gpfs/home/software/spack-0.10.1/opt/spack/linux-centos7-x86_64/intel-17.0.4/intel-mkl-2017.3.196-jyjmyutcol3veyt4bazftyqkxxzmfd7o/pkg/compilers_and_libraries_2017.4.196/linux/mkl/lib/intel64 -lmkl_intel_ilp64 -lmkl_intel_thread -lmkl_core
 id        : anlgov

 Nodes     nprocs
 b460         3
 Number of processes for MPI-2 version of Molpro:   nprocs(total)=    4   nprocs(compute)=    3   nprocs(helper)=    1

 Using customized tuning parameters: mindgm=7; mindgv=16; mindgc=1; mindgr=1; noblas=0; minvec=7
 default implementation of scratch files=sf  

                                                                                 !
 memory,1280,m
                                                                                 ! wavefunction template
 angstrom
 geometry = {
            3
  ANT Direct Dynamics Calculation
 N           0.2556234666       -0.2895959055        0.0000000000
 N           1.2908217214        0.1667521053        0.0000000000
 O          -1.3669271880        0.1009628002        0.0000000000
 }
 set,spin=2
 set,charge=0
 basis=aug-cc-pvdz
 nn(1)=1
 nn(2)=2
 nn(3)=3
 {rhf,,maxit=300}
 {casscf,maxit=40
 closed,5
 wf,22,1,2,0}
 {rs2,shift=0.20}
 
 status,all,crash
 
 molpro_energy=energy
 show[1,e25.15],molpro_energy
 {force,varsav}
 text,MOLGRAD
 table,nn,gradx,grady,gradz
 ftyp,f,d,d,d

 Variables initialized (889), CPU time= 0.01 sec
 Commands  initialized (702), CPU time= 0.01 sec, 572 directives.
 Default parameters read. Elapsed time= 0.07 sec

 Checking input...
 Passed
1


                                         ***  PROGRAM SYSTEM MOLPRO  ***
                                       Copyright, TTI GmbH Stuttgart, 2015
                                    Version 2015.1 linked Sep 21 2017 09:51:13


 **********************************************************************************************************************************
 LABEL *                                                                                 
  64 bit mpp version                                                                     DATE: 17-Aug-21          TIME: 10:34:33  
 **********************************************************************************************************************************

 SHA1:             f86d681fdec979508940bfbbc93fd7db66630888
 **********************************************************************************************************************************
 ZUNIT=ANG
 

Geometry recognized as XYZ

 SETTING SPIN           =         2.00000000                                  
 SETTING CHARGE         =     0.00000000D+00                                  

 Variable memory set to 1280000000 words,  buffer space   230000 words

 SETTING BASIS          =    AUG-CC-PVDZ
 SETTING NN(1)          =         1.00000000                                  
 SETTING NN(2)          =         2.00000000                                  
 SETTING NN(3)          =         3.00000000                                  


 Recomputing integrals since basis changed


 Using spherical harmonics

 Library entry N      S aug-cc-pVDZ          selected for orbital group  1
 Library entry N      P aug-cc-pVDZ          selected for orbital group  1
 Library entry N      D aug-cc-pVDZ          selected for orbital group  1
 Library entry O      S aug-cc-pVDZ          selected for orbital group  2
 Library entry O      P aug-cc-pVDZ          selected for orbital group  2
 Library entry O      D aug-cc-pVDZ          selected for orbital group  2


 PROGRAM * SEWARD (Integral evaluation for generally contracted gaussian basis sets)     Author: Roland Lindh, 1990

 Geometry written to block  1 of record 700


 Point group  Cs  



 ATOMIC COORDINATES

 NR  ATOM    CHARGE       X              Y              Z

   1  N       7.00    0.483058343   -0.547256948    0.000000000
   2  N       7.00    2.439299529    0.315115810    0.000000000
   3  O       8.00   -2.583118018    0.190792041    0.000000000

 Bond lengths in Bohr (Angstrom)

 1-2  2.137888293  1-3  3.153752334
     ( 1.131321764)     ( 1.668893864)

 Bond angles

  2-1-3  142.67659394

 NUCLEAR CHARGE:                   22
 NUMBER OF PRIMITIVE AOS:         111
 NUMBER OF SYMMETRY AOS:          105
 NUMBER OF CONTRACTIONS:           69   (  48A'  +  21A"  )
 NUMBER OF CORE ORBITALS:           3   (   3A'  +   0A"  )
 NUMBER OF VALENCE ORBITALS:       12   (   9A'  +   3A"  )


 NUCLEAR REPULSION ENERGY   51.82303316

 Eigenvalues of metric

         1 0.133E-03 0.570E-03 0.265E-02 0.465E-02 0.106E-01 0.184E-01 0.325E-01 0.376E-01
         2 0.104E-01 0.372E-01 0.819E-01 0.161E+00 0.173E+00 0.254E+00 0.328E+00 0.361E+00


 Contracted 2-electron integrals neglected if value below      1.0D-11
 AO integral compression algorithm  1   Integral accuracy      1.0D-11

     9.699 MB (compressed) written to integral file ( 56.5%)

     Node minimum: 3.146 MB, node maximum: 3.408 MB


 NUMBER OF SORTED TWO-ELECTRON INTEGRALS:     511749.     BUFFER LENGTH:  32768
 NUMBER OF SEGMENTS:   1  SEGMENT LENGTH:     511749      RECORD LENGTH: 524288

 Memory used in sort:       1.07 MW

 SORT1 READ     2065561. AND WROTE      494013. INTEGRALS IN      2 RECORDS. CPU TIME:     0.02 SEC, REAL TIME:     0.03 SEC
 SORT2 READ     1485903. AND WROTE     1533840. INTEGRALS IN     39 RECORDS. CPU TIME:     0.02 SEC, REAL TIME:     0.02 SEC

 Node minimum:      510811.  Node maximum:      511749. integrals

 OPERATOR DM      FOR CENTER  0  COORDINATES:    0.000000    0.000000    0.000000


 **********************************************************************************************************************************
 DATASETS  * FILE   NREC   LENGTH (MB)   RECORD NAMES
              1      18       19.21       500      610      700      900      950      970     1000      129      960     1100   
                                          VAR    BASINP    GEOM    SYMINP    ZMAT    AOBASIS   BASIS     P2S    ABASIS      S 
                                         1400     1410     1200     1210     1080     1600     1650     1700   
                                           T        V       H0       H01     AOSYM     SMH    MOLCAS    OPER   

 PROGRAMS   *        TOTAL       INT
 CPU TIMES  *         0.41      0.26
 REAL TIME  *         0.97 SEC
 DISK USED  *        32.11 MB      
 GA USED    *         0.00 MB       (max)       0.00 MB       (current)
 **********************************************************************************************************************************


 PROGRAM * RHF-SCF (OPEN SHELL)       Authors: W. Meyer, H.-J. Werner


 NUMBER OF ELECTRONS:      12+   10-
 CONVERGENCE THRESHOLDS:    1.00E-06 (Density)    1.00E-07 (Energy)
 MAX. NUMBER OF ITERATIONS:      300
 INTERPOLATION TYPE:            DIIS
 INTERPOLATION STEPS:              2 (START)      1 (STEP)
 LEVEL SHIFTS:                 -0.60 (CLOSED) -0.30 (OPEN) 



 Orbital guess generated from atomic densities. Full valence occupancy:   12   3

 Molecular orbital dump at record        2100.2

 Initial alpha occupancy:  10   2
 Initial beta  occupancy:   8   2
 Wave function symmetry:    1

 ITERATION    DDIFF          GRAD             ENERGY        2-EL.EN.            DIPOLE MOMENTS         DIIS   ORB.
    1      0.000D+00      0.000D+00      -183.50133123    232.311500    1.10482   -0.27318    0.00000    0    start
    2      0.000D+00      0.112D-01      -183.59920287    235.070582    0.32633   -0.05445    0.00000    1    diag,B
    3      0.191D-01      0.488D-02      -183.62099826    235.512085    0.31877   -0.08222    0.00000    2    diag,B
    4      0.822D-02      0.242D-02      -183.63740136    235.739009    0.25644   -0.06066    0.00000    3    diag,B
    5      0.468D-02      0.168D-02      -183.64901613    235.897609    0.20483   -0.05483    0.00000    4    diag,B
    6      0.475D-02      0.105D-02      -183.65419040    235.991618    0.16844   -0.05002    0.00000    5    diag,B
    7      0.359D-02      0.560D-03      -183.65547567    236.028579    0.13178   -0.05219    0.00000    6    fixocc
    8      0.238D-02      0.173D-03      -183.65552461    236.039494    0.12836   -0.05025    0.00000    7    diag,B
    9      0.458D-03      0.670D-04      -183.65553502    236.039192    0.12134   -0.05045    0.00000    8    diag,B
   10      0.205D-03      0.301D-04      -183.65553673    236.041580    0.11899   -0.05037    0.00000    9    orth
   11      0.702D-04      0.133D-04      -183.65553710    236.040287    0.11846   -0.05037    0.00000    9    diag,B
   12      0.548D-04      0.713D-05      -183.65553722    236.040993    0.11782   -0.05044    0.00000    9    diag,B
   13      0.227D-04      0.332D-05      -183.65553725    236.040857    0.11766   -0.05046    0.00000    9    diag,B
   14      0.127D-04      0.124D-05      -183.65553725    236.040839    0.11769   -0.05047    0.00000    9    diag,B
   15      0.402D-05      0.480D-06      -183.65553725    236.040805    0.11772   -0.05047    0.00000    9    diag,B
   16      0.210D-05      0.168D-06      -183.65553725    236.040806    0.11773   -0.05047    0.00000    9    diag,B
   17      0.550D-06      0.822D-07      -183.65553725    236.040807    0.11773   -0.05047    0.00000    0    orth

 Final alpha occupancy:  10   2
 Final beta  occupancy:   8   2

 !RHF STATE 1.1 Energy               -183.655537251812
 Nuclear energy                        51.82303316
 One-electron energy                 -353.49897398
 Two-electron energy                  118.02040358
 Virial quotient                       -1.00033718
 !RHF STATE 1.1 Dipole moment           0.11772679    -0.05046872     0.00000000
 Dipole moment /Debye                   0.29921205    -0.12827029     0.00000000

 Orbital energies:

         1.1          2.1          3.1          4.1          5.1          6.1          7.1          8.1          9.1         10.1
    -20.659609   -15.717727   -15.710381    -1.470504    -1.276493    -0.814585    -0.662004    -0.620955    -0.687866    -0.561598

        11.1         12.1
      0.102661     0.113454

         1.2          2.2          3.2          4.2
     -0.632270    -0.539823     0.113723     0.156435

 HOMO      2.2    -0.539823 =     -14.6893eV
 LUMO     11.1     0.102661 =       2.7935eV
 LUMO-HOMO         0.642484 =      17.4829eV


 **********************************************************************************************************************************
 DATASETS  * FILE   NREC   LENGTH (MB)   RECORD NAMES
              1      18       19.21       500      610      700      900      950      970     1000      129      960     1100   
                                          VAR    BASINP    GEOM    SYMINP    ZMAT    AOBASIS   BASIS     P2S    ABASIS      S 
                                         1400     1410     1200     1210     1080     1600     1650     1700   
                                           T        V       H0       H01     AOSYM     SMH    MOLCAS    OPER   

              2       4        2.86       700     1000      520     2100   
                                         GEOM     BASIS   MCVARS     RHF  

 PROGRAMS   *        TOTAL       RHF       INT
 CPU TIMES  *         0.53      0.12      0.26
 REAL TIME  *         1.14 SEC
 DISK USED  *        99.69 MB      
 SF USED    *         0.01 MB      
 GA USED    *         0.00 MB       (max)       0.00 MB       (current)
 **********************************************************************************************************************************


 PROGRAM * MULTI (Direct Multiconfiguration SCF)       Authors: P.J. Knowles, H.-J. Werner (1984)     S.T. Elbert (1988)


 Number of closed-shell orbitals:   5 (   5   0 )
 Number of active  orbitals:       10 (   7   3 )
 Number of external orbitals:      54 (  36  18 )

 State symmetry 1

 Number of electrons:    12    Spin symmetry=Triplet   Space symmetry=1
 Number of states:        1
 Number of CSFs:      10374   (15120 determinants, 30240 intermediate states)

 Molecular orbitals read from record     2100.2  Type=RHF/CANONICAL (state 1.1)

 Wavefunction dump at record             2140.2

 Convergence thresholds  0.10E-01 (gradient)  0.10E-05 (energy)  0.10E-02 (step length)

 Number of orbital rotations:      521   (    35 Core/Active    180 Core/Virtual   0 Active/Active    306 Active/Virtual)
 Total number of variables:      15641


 ITER. MIC  NCI  NEG     ENERGY(VAR)     ENERGY(PROJ)   ENERGY CHANGE     GRAD(0)  GRAD(ORB)   GRAD(CI)     STEP       TIME

   1   70   26    0    -183.67159546    -183.80294560   -0.13135015    0.03294571 0.00039875 0.01571725  0.14D+01      0.45
   2   41   35    0    -183.80500005    -183.81347076   -0.00847071    0.05344737 0.00000199 0.00234550  0.42D+00      1.11
   3   37   31    0    -183.81436098    -183.81462346   -0.00026248    0.01274159 0.00000011 0.00024171  0.67D-01      1.69
   4   28   25    0    -183.81463114    -183.81463183   -0.00000069    0.00062701 0.00000082 0.00002362  0.32D-02      2.14
   5   27   13    0    -183.81463183    -183.81463183   -0.00000000    0.00000545 0.00000008 0.00000141  0.10D-04      2.37

 ** WVFN ****  CONVERGENCE REACHED, FINAL GRADIENT:  0.49D-06


 First order charge density matrix for state 1.1 saved on record  2140.2 (density set 1)

 Results for state 1.1
 =====================

 !MCSCF STATE 1.1 Energy             -183.814631831910
 Nuclear energy                        51.82303316
 Kinetic energy                       183.96441298
 One electron energy                 -353.71403274
 Two electron energy                  118.07636776
 Virial ratio                           1.99918581

 !MCSCF STATE 1.1 Dipole moment         0.11549094    -0.06958241     0.00000000
 Dipole moment /Debye                   0.29352947    -0.17684926     0.00000000


 Natural orbital dump at molpro section  2140.2    (Orbital set 2)



 **********************************************************************************************************************************
 DATASETS  * FILE   NREC   LENGTH (MB)   RECORD NAMES
              1      19       22.92       500      610      700      900      950      970     1000      129      960     1100   
                                          VAR    BASINP    GEOM    SYMINP    ZMAT    AOBASIS   BASIS     P2S    ABASIS      S 
                                         1400     1410     1200     1210     1080     1600     1650     1700     1380   
                                           T        V       H0       H01     AOSYM     SMH    MOLCAS    OPER     JKOP   

              2       5        5.45       700     1000      520     2100     2140   
                                         GEOM     BASIS   MCVARS     RHF     MCSCF   

 PROGRAMS   *        TOTAL    CASSCF       RHF       INT
 CPU TIMES  *         3.07      2.53      0.12      0.26
 REAL TIME  *         4.35 SEC
 DISK USED  *        99.69 MB      
 SF USED    *        24.77 MB      
 GA USED    *         0.00 MB       (max)       0.00 MB       (current)
 **********************************************************************************************************************************


 PROGRAM * RS2 (Multireference RS Perturbation Theory)     Authors: H.-J. Werner (1993), P. Celani (1998)


 Level shift= 0.20

 Convergence thresholds:  THRVAR = 1.00D-10  THRDEN = 1.00D-08

 Number of optimized states:  1  Roots:   1
 Number of reference states:  1  Roots:   1

 Reference symmetry:                   1   Triplet 
 Number of electrons:                 22
 Maximum number of shells:             6
 Maximum number of spin couplings:   297

 Reference space:     3283 conf    10374 CSFs
 N elec internal:    24345 conf   101970 CSFs
 N-1 el internal:    36037 conf   292275 CSFs
 N-2 el internal:    35292 conf   548774 CSFs

 Number of electrons in valence space:                     16
 Maximum number of open shell orbitals in reference space:  8
 Maximum number of open shell orbitals in internal spaces: 12


 Number of core orbitals:           3 (   3   0 )
 Number of closed-shell orbitals:   2 (   2   0 )
 Number of active  orbitals:       10 (   7   3 )
 Number of external orbitals:      54 (  36  18 )

 Molecular orbitals read from record     2140.2  Type=MCSCF/NATURAL (state 1.1)

 Coulomb and exchange operators available. No transformation done.

 Number of p-space configurations:  23

 Reference wavefunction optimized for reference space (refopt=1)

 State     Reference Energy 
   1        -183.81463183

 Number of blocks in overlap matrix:     4   Smallest eigenvalue:  0.16D-01
 Number of N-2 electron functions:     144
 Number of N-1 electron functions:  292275

 Number of internal configurations:                50982
 Number of singly external configurations:       7897302
 Number of doubly external configurations:        108216
 Total number of contracted configurations:      8056500
 Total number of uncontracted configurations:  417836877

 Weight factors for SA-density in H0:    1.000000

 FIMAX=  0.27D+00  FXMAX=  0.49D-07  DIAG=  F  F  NOREF=1  NOINT=0  IHPPD=2

 Nuclear energy:                      51.82303316
 Core energy:                       -173.21598034
 Zeroth-order valence energy:        -12.09892606
 Zeroth-order total energy:         -133.49187325
 First-order energy:                 -50.32275859

 Using uncontracted singles

 Diagonal Coupling coefficients finished.               Storage: 1766116 words, CPU-Time:      0.00 seconds.
 Energy denominators for pairs finished in 0 passes.    Storage: 1759081 words, CPU-time:      0.00 seconds.

 A level shift of 0.20 is applied.

  ITER. STATE  ROOT     SQ.NORM     CORR.ENERGY   TOTAL ENERGY   ENERGY CHANGE       DEN1      VAR(S)    VAR(P)      TIME
    1     1     1     1.03730897    -0.00746179  -183.82209363    -0.00746179    -0.29783383  0.37D-01  0.42D-01     9.65
    2     1     1     1.08391035    -0.32195868  -184.13659051    -0.31449688    -0.00277275  0.52D-03  0.17D-03    18.34
    3     1     1     1.08530856    -0.32438376  -184.13901559    -0.00242508    -0.00155477  0.20D-04  0.32D-05    26.89
    4     1     1     1.08560431    -0.32450725  -184.13913908    -0.00012349    -0.00005209  0.11D-05  0.15D-06    35.35
    5     1     1     1.08566607    -0.32452264  -184.13915447    -0.00001539    -0.00004790  0.93D-07  0.72D-08    43.78
    6     1     1     1.08567471    -0.32452457  -184.13915640    -0.00000193    -0.00000034  0.11D-07  0.51D-09    52.21
    7     1     1     1.08567784    -0.32452521  -184.13915704    -0.00000064    -0.00000242  0.15D-08  0.40D-10    60.63
    8     1     1     1.08567813    -0.32452527  -184.13915710    -0.00000005     0.00000017  0.26D-09  0.41D-11    68.95
    9     1     1     1.08567834    -0.32452531  -184.13915714    -0.00000004    -0.00000018  0.48D-10  0.49D-12    77.23
   10     1     1     1.08567834    -0.32452531  -184.13915714     0.00000000     0.00000003  0.95D-11  0.68D-13    85.49
   11     1     1     1.08567836    -0.32452531  -184.13915714    -0.00000000    -0.00000002  0.20D-11  0.10D-13    93.76

 Energies without level shift correction:

   11     1     1     1.08567836    -0.30738964  -184.12202147

 Energy contributions for state 1.1:
 ===================================

            Energy contr.      SQ.Norm of FOWF
 Space I     -0.00550502          0.00261322
 Space S     -0.12159586          0.04057929
 Space P     -0.18028876          0.04248585


 =====================================
 Analysis of CPU times by interactions
 =====================================

       I      S      P

 I   2.3%
 S  15.6%  33.4%
 P   0.8%  36.2%   0.1%

 Initialization:   6.4%
 Other:            5.2%

 Total CPU:       93.8 seconds
 =====================================


 Initialize record     7000.1
 Now solve CP-CASPT2 equations

 A level shift of 0.20 is applied.

  ITER. STATE  ROOT     SQ.NORM     CORR.ENERGY   TOTAL ENERGY   ENERGY CHANGE       DEN1      VAR(S)    VAR(P)      TIME
    1     1     1     1.05315603    -0.01613623  -183.83076806    -0.01613623    -0.36691432  0.51D-01  0.52D-01   114.74
    2     1     1     1.10918935    -0.39958503  -184.21421687    -0.38344881    -0.00416303  0.72D-03  0.23D-03   123.36
    3     1     1     1.11129223    -0.40288746  -184.21751929    -0.00330243    -0.00208231  0.29D-04  0.44D-05   131.84
    4     1     1     1.11170822    -0.40305988  -184.21769171    -0.00017242    -0.00008738  0.16D-05  0.23D-06   140.28
    5     1     1     1.11180093    -0.40308271  -184.21771454    -0.00002283    -0.00006600  0.14D-06  0.10D-07   148.71
    6     1     1     1.11181382    -0.40308557  -184.21771740    -0.00000286    -0.00000135  0.15D-07  0.74D-09   157.16
    7     1     1     1.11181860    -0.40308655  -184.21771838    -0.00000098    -0.00000338  0.22D-08  0.56D-10   165.48
    8     1     1     1.11181904    -0.40308664  -184.21771847    -0.00000009     0.00000018  0.36D-09  0.57D-11   173.78
    9     1     1     1.11181938    -0.40308671  -184.21771854    -0.00000007    -0.00000026  0.67D-10  0.68D-12   182.09
   10     1     1     1.11181938    -0.40308670  -184.21771854     0.00000000     0.00000004  0.13D-10  0.94D-13   190.35
   11     1     1     1.11181941    -0.40308671  -184.21771854    -0.00000001    -0.00000003  0.27D-11  0.14D-13   198.61

 Energies without level shift correction:

   11     1     1     1.11181941    -0.38072283  -184.19535466

 Energy contributions for state 1.1:
 ===================================

            Energy contr.      SQ.Norm of FOWF
 Space I     -0.00779620          0.00378613
 Space S     -0.15677859          0.05554718
 Space P     -0.21614804          0.05248610


 =====================================
 Analysis of CPU times by interactions
 =====================================

       I      S      P

 I   1.1%
 S  14.4%  31.5%
 P   0.4%  34.2%   0.1%

 Initialization:  48.9%
 Other:          -30.4%

 Total CPU:      198.6 seconds
 =====================================



 Reference coefficients greater than 0.0500000
 =============================================
 22222//00220           0.9532639
 22222//00202          -0.1266673
 22220//20220          -0.1102325
 2222///\02/\          -0.0705950
 2222///\02\/           0.0687842
 222/2\//0220          -0.0649107
 2222/\//02/\          -0.0599166



 RESULTS FOR STATE 1.1
 =====================

 Coefficient of reference function:   C(0) = 1.00000000 (fixed)   1.00000000 (relaxed)

 Energy contributions of configuration classes

 CLASS          SQ.NORM        ECORR1        ECORR2
 +++++++++++++++++++++++++++++++++++++++++++++++++++
 Internals    0.00378613   -0.00653934    0.27900978
 Singles      0.05554718   -0.13784521   -0.25113515
 Pairs        0.05248610   -0.19727643   -0.35239995
 Total        1.11181941   -0.34166099   -0.32452531
 +++++++++++++++++++++++++++++++++++++++++++++++++++


 Reference energy                    -183.81463183
 Nuclear energy                        51.82303316
 Kinetic energy                       184.21206569
 One electron energy                 -353.48896506
 Two electron energy                  117.52677476
 Virial quotient                       -0.99960421
 Correlation energy                    -0.32452531
 !RSPT2 STATE 1.1 Energy             -184.139157144274

 Properties without orbital relaxation:

 !RSPT2 STATE 1.1 Dipole moment         0.12590915    -0.06704226     0.00000000
 Dipole moment /Debye                   0.32000817    -0.17039326     0.00000000


 **********************************************************************************************************************************


 PROGRAM * MULTI (Direct Multiconfiguration SCF)       Authors: P.J. Knowles, H.-J. Werner (1984)     S.T. Elbert (1988)


 Number of closed-shell orbitals:   5 (   5   0 )
 Number of active  orbitals:       10 (   7   3 )
 Number of external orbitals:      54 (  36  18 )

 State symmetry 1

 Number of electrons:    12    Spin symmetry=Triplet   Space symmetry=1
 Number of states:        1
 Number of CSFs:      10374
 
 Maximum number of shells:             6
 Maximum number of spin couplings:   297

 Storage for configuration lists   23753, coupling coefficients1494454, address lists 248643

 Molecular orbitals read from record     2140.2  Type=MCSCF/NATURAL (state 1.1)

 Wavefunction dump at record             3140.4

 Convergence thresholds  0.10E-04 (gradient)  0.10E-07 (energy)  0.10E-02 (step length)

 Eigenvalues of redundancy matrix
   1- 10   -0.000000   -0.000000   -0.000000   -0.000000   -0.000000   -0.000000   -0.000000   -0.000000   -0.000000    0.000000
  11- 20    0.000000    0.000000    0.000000    0.000000    0.000000    0.000000    0.000000    0.000000    0.000000    0.000000
  21- 24    0.000000    0.000000    0.000000    0.000000

 Number of orbital rotations:      521   (    35 Core/Active    180 Core/Virtual   0 Active/Active    306 Active/Virtual)
 Total number of variables:      10895


 ITER. MIC  NCI  NEG     ENERGY(VAR)     ENERGY(PROJ)   ENERGY CHANGE     GRAD(0)  GRAD(ORB)   GRAD(CI)     STEP       TIME

   1   27   20    0    -183.81463183    -183.81463183    0.00000000    0.00000048 0.00000000 0.00000020  0.00D+00      0.96

 Warning: orbitals not optimized!

 Solving MCSCF z-vector equations for state  1.1, requested accuracy=      0.10D-05
 Convergence reached in  19 iterations ( 19 expansion vectors), accuracy=  0.67D-06

 Properties including orbital relaxation:

 !RSPT2 dipole moments (ED):            0.19876104    -0.07416356     0.00000000

 RSPT2 Gradient info saved on record         5200.1

 CPU-time for rhs:           30.99 sec
 CPU-time for cpmcscf:        2.86 sec
 CPU-time for densities:      0.00 sec


 **********************************************************************************************************************************
 DATASETS  * FILE   NREC   LENGTH (MB)   RECORD NAMES
              1      25      153.92       500      610      700      900      950      970     1000      129      960     1100   
                                          VAR    BASINP    GEOM    SYMINP    ZMAT    AOBASIS   BASIS     P2S    ABASIS      S 
                                         1400     1410     1200     1210     1080     1600     1650     1700     1380     7000   
                                           T        V       H0       H01     AOSYM     SMH    MOLCAS    OPER     JKOP   
                                         7001     5200     5210     7009     7005   
                                                 RS2GRAD  RS2GRAD    

              2       5        5.45       700     1000      520     2100     2140   
                                         GEOM     BASIS   MCVARS     RHF     MCSCF   

 PROGRAMS   *        TOTAL       RS2    CASSCF       RHF       INT
 CPU TIMES  *       265.57    262.49      2.53      0.12      0.26
 REAL TIME  *       277.39 SEC
 DISK USED  *        99.69 MB      
 SF USED    *       611.64 MB      
 GA USED    *         0.00 MB       (max)       0.00 MB       (current)
 **********************************************************************************************************************************
 
 STEP  1 RHF-SCF        O.K.    
 STEP  2 CASSCF         O.K.    
 STEP  3 RS2            O.K.    
 SETTING MOLPRO_ENERGY  =      -184.13915714  AU                              
 MOLPRO_ENERGY    =       -0.184139157144274E+03 AU


 PROGRAM * ALASKA (Gradient of the energy)     Author: R. Lindh


 RSPT2 Gradient info restored from record    5200.1

 Number of core orbitals:           3 (   3   0 )
 Number of closed-shell orbitals:   2 (   2   0 )
 Number of active  orbitals:       10 (   7   3 )
 Number of external orbitals:      54 (  36  18 )

 Integral thresholds in T2TRAN:            1.0D-10 (PROD)

 Available memory for Transformation:1277797029 words
 Memory needed for incore algorithm:     402848 words
 Minimum memory needed:                  148238 words

 Memory used for transformation:           0.40 MW
 Available memory for gradients:        1279.39 MW

 CPU for transformation:                   0.02 sec
 CPU for integrals and gradient:           1.25 sec
 Total CPU:                                1.27 sec

 Prescreening statistics:
 ========================

 Total number of shell quadruplets:        2.18D+02
 Number of shell quadruplets processed:    2.18D+02 (100.00%)

 RSPT2 GRADIENT FOR STATE 1.1

 Atom          dE/dx               dE/dy               dE/dz

   1        -0.063702708         0.039237508         0.000000000
   2         0.000255088        -0.014586905         0.000000000
   3         0.063447620        -0.024650603         0.000000000

 Nuclear force contribution to virial =        -0.224815280


 **********************************************************************************************************************************
 DATASETS  * FILE   NREC   LENGTH (MB)   RECORD NAMES
              1      25      153.92       500      610      700      900      950      970     1000      129      960     1100   
                                          VAR    BASINP    GEOM    SYMINP    ZMAT    AOBASIS   BASIS     P2S    ABASIS      S 
                                         1400     1410     1200     1210     1080     1600     1650     1700     1380     7000   
                                           T        V       H0       H01     AOSYM     SMH    MOLCAS    OPER     JKOP   
                                         7001     5200     5210     7009     7005   
                                                 RS2GRAD  RS2GRAD    

              2       5        5.45       700     1000      520     2100     2140   
                                         GEOM     BASIS   MCVARS     RHF     MCSCF   

 PROGRAMS   *        TOTAL     FORCE       RS2    CASSCF       RHF       INT
 CPU TIMES  *       267.80      2.21    262.49      2.53      0.12      0.26
 REAL TIME  *       281.08 SEC
 DISK USED  *        99.69 MB      
 SF USED    *       611.64 MB      
 GA USED    *         0.00 MB       (max)       0.00 MB       (current)
 **********************************************************************************************************************************

 *** MOLGRAD
                                                                                                                                                                                                                                                                

     NN          GRADX             GRADY        GRADZ
    1.0   -6.37027080D-02    3.92375080D-02   0.0D+00
    2.0    2.55088147D-04   -1.45869054D-02   0.0D+00
    3.0    6.34476199D-02   -2.46506026D-02   0.0D+00
                                                  

 RS2/aug-cc-pVDZ energy=   -184.139157144274

        RS2             CASSCF          RHF-SCF 
   -184.13915714   -183.81463183   -183.65553725
 **********************************************************************************************************************************
 Molpro calculation terminated
 Variable memory released
