
 Primary working directories    : /scratch/kmoore
 Secondary working directories  : /scratch/kmoore
 Wavefunction directory         : /home/kmoore/wfu/
 Main file repository           : /scratch/kmoore/

 SHA1      : f86d681fdec979508940bfbbc93fd7db66630888
 NAME      : 2015.1.24
 ARCHNAME  : linux/x86_64
 FC        : /blues/gpfs/home/software/spack-0.10.1/opt/spack/linux-centos7-x86_64/intel-17.0.4/intel-mpi-2017.3-dfphq6kavje2olnichisvjjndtridrok/compilers_and_libraries_2017.4.196/linux/mpi/intel64/bin/mpiifort
 BLASLIB   : -L/blues/gpfs/home/software/spack-0.10.1/opt/spack/linux-centos7-x86_64/intel-17.0.4/intel-mkl-2017.3.196-jyjmyutcol3veyt4bazftyqkxxzmfd7o/pkg/compilers_and_libraries_2017.4.196/linux/mkl/lib/intel64 -lmkl_intel_ilp64 -lmkl_intel_thread -lmkl_core
 id        : anlgov

 Nodes     nprocs
 b460         3
 Number of processes for MPI-2 version of Molpro:   nprocs(total)=    4   nprocs(compute)=    3   nprocs(helper)=    1

 Using customized tuning parameters: mindgm=7; mindgv=16; mindgc=1; mindgr=1; noblas=0; minvec=7
 default implementation of scratch files=sf  

                                                                                 !
 memory,1280,m
                                                                                 ! wavefunction template
 angstrom
 geometry = {
            3
  ANT Direct Dynamics Calculation
 N           0.2555944670       -0.2895890596        0.0000000000
 N           1.2908873475        0.1667538098        0.0000000000
 O          -1.3669638145        0.1009542498        0.0000000000
 }
 set,spin=2
 set,charge=0
 basis=aug-cc-pvdz
 nn(1)=1
 nn(2)=2
 nn(3)=3
 {rhf,,maxit=300}
 {casscf,maxit=40
 closed,5
 wf,22,1,2,0}
 {rs2,shift=0.20}
 
 status,all,crash
 
 molpro_energy=energy
 show[1,e25.15],molpro_energy
 {force,varsav}
 text,MOLGRAD
 table,nn,gradx,grady,gradz
 ftyp,f,d,d,d

 Variables initialized (889), CPU time= 0.01 sec
 Commands  initialized (702), CPU time= 0.01 sec, 572 directives.
 Default parameters read. Elapsed time= 0.07 sec

 Checking input...
 Passed
1


                                         ***  PROGRAM SYSTEM MOLPRO  ***
                                       Copyright, TTI GmbH Stuttgart, 2015
                                    Version 2015.1 linked Sep 21 2017 09:51:13


 **********************************************************************************************************************************
 LABEL *                                                                                 
  64 bit mpp version                                                                     DATE: 17-Aug-21          TIME: 10:10:42  
 **********************************************************************************************************************************

 SHA1:             f86d681fdec979508940bfbbc93fd7db66630888
 **********************************************************************************************************************************
 ZUNIT=ANG
 

Geometry recognized as XYZ

 SETTING SPIN           =         2.00000000                                  
 SETTING CHARGE         =     0.00000000D+00                                  

 Variable memory set to 1280000000 words,  buffer space   230000 words

 SETTING BASIS          =    AUG-CC-PVDZ
 SETTING NN(1)          =         1.00000000                                  
 SETTING NN(2)          =         2.00000000                                  
 SETTING NN(3)          =         3.00000000                                  


 Recomputing integrals since basis changed


 Using spherical harmonics

 Library entry N      S aug-cc-pVDZ          selected for orbital group  1
 Library entry N      P aug-cc-pVDZ          selected for orbital group  1
 Library entry N      D aug-cc-pVDZ          selected for orbital group  1
 Library entry O      S aug-cc-pVDZ          selected for orbital group  2
 Library entry O      P aug-cc-pVDZ          selected for orbital group  2
 Library entry O      D aug-cc-pVDZ          selected for orbital group  2


 PROGRAM * SEWARD (Integral evaluation for generally contracted gaussian basis sets)     Author: Roland Lindh, 1990

 Geometry written to block  1 of record 700


 Point group  Cs  



 ATOMIC COORDINATES

 NR  ATOM    CHARGE       X              Y              Z

   1  N       7.00    0.483003542   -0.547244011    0.000000000
   2  N       7.00    2.439423544    0.315119031    0.000000000
   3  O       8.00   -2.583187232    0.190775883    0.000000000

 Bond lengths in Bohr (Angstrom)

 1-2  2.138047999  1-3  3.153759538
     ( 1.131406277)     ( 1.668897676)

 Bond angles

  2-1-3  142.67934032

 NUCLEAR CHARGE:                   22
 NUMBER OF PRIMITIVE AOS:         111
 NUMBER OF SYMMETRY AOS:          105
 NUMBER OF CONTRACTIONS:           69   (  48A'  +  21A"  )
 NUMBER OF CORE ORBITALS:           3   (   3A'  +   0A"  )
 NUMBER OF VALENCE ORBITALS:       12   (   9A'  +   3A"  )


 NUCLEAR REPULSION ENERGY   51.82085092

 Eigenvalues of metric

         1 0.133E-03 0.570E-03 0.265E-02 0.465E-02 0.106E-01 0.184E-01 0.325E-01 0.376E-01
         2 0.104E-01 0.372E-01 0.819E-01 0.161E+00 0.173E+00 0.254E+00 0.328E+00 0.361E+00


 Contracted 2-electron integrals neglected if value below      1.0D-11
 AO integral compression algorithm  1   Integral accuracy      1.0D-11

     9.437 MB (compressed) written to integral file ( 58.1%)

     Node minimum: 3.146 MB, node maximum: 3.146 MB


 NUMBER OF SORTED TWO-ELECTRON INTEGRALS:     511749.     BUFFER LENGTH:  32768
 NUMBER OF SEGMENTS:   1  SEGMENT LENGTH:     511749      RECORD LENGTH: 524288

 Memory used in sort:       1.07 MW

 SORT1 READ     2065561. AND WROTE      494012. INTEGRALS IN      2 RECORDS. CPU TIME:     0.03 SEC, REAL TIME:     0.03 SEC
 SORT2 READ     1485902. AND WROTE     1533840. INTEGRALS IN     36 RECORDS. CPU TIME:     0.02 SEC, REAL TIME:     0.02 SEC

 Node minimum:      510811.  Node maximum:      511749. integrals

 OPERATOR DM      FOR CENTER  0  COORDINATES:    0.000000    0.000000    0.000000


 **********************************************************************************************************************************
 DATASETS  * FILE   NREC   LENGTH (MB)   RECORD NAMES
              1      18       19.21       500      610      700      900      950      970     1000      129      960     1100   
                                          VAR    BASINP    GEOM    SYMINP    ZMAT    AOBASIS   BASIS     P2S    ABASIS      S 
                                         1400     1410     1200     1210     1080     1600     1650     1700   
                                           T        V       H0       H01     AOSYM     SMH    MOLCAS    OPER   

 PROGRAMS   *        TOTAL       INT
 CPU TIMES  *         0.40      0.25
 REAL TIME  *         1.02 SEC
 DISK USED  *        32.11 MB      
 GA USED    *         0.00 MB       (max)       0.00 MB       (current)
 **********************************************************************************************************************************


 PROGRAM * RHF-SCF (OPEN SHELL)       Authors: W. Meyer, H.-J. Werner


 NUMBER OF ELECTRONS:      12+   10-
 CONVERGENCE THRESHOLDS:    1.00E-06 (Density)    1.00E-07 (Energy)
 MAX. NUMBER OF ITERATIONS:      300
 INTERPOLATION TYPE:            DIIS
 INTERPOLATION STEPS:              2 (START)      1 (STEP)
 LEVEL SHIFTS:                 -0.60 (CLOSED) -0.30 (OPEN) 



 Orbital guess generated from atomic densities. Full valence occupancy:   12   3

 Molecular orbital dump at record        2100.2

 Initial alpha occupancy:  10   2
 Initial beta  occupancy:   8   2
 Wave function symmetry:    1

 ITERATION    DDIFF          GRAD             ENERGY        2-EL.EN.            DIPOLE MOMENTS         DIIS   ORB.
    1      0.000D+00      0.000D+00      -183.50126511    232.307163    1.10517   -0.27317    0.00000    0    start
    2      0.000D+00      0.112D-01      -183.59916268    235.066154    0.32620   -0.05441    0.00000    1    diag,B
    3      0.191D-01      0.488D-02      -183.62096328    235.507791    0.31873   -0.08219    0.00000    2    diag,B
    4      0.822D-02      0.242D-02      -183.63736900    235.734717    0.25640   -0.06063    0.00000    3    diag,B
    5      0.468D-02      0.168D-02      -183.64898725    235.893369    0.20480   -0.05480    0.00000    4    diag,B
    6      0.475D-02      0.105D-02      -183.65416450    235.987368    0.16842   -0.05000    0.00000    5    diag,B
    7      0.359D-02      0.560D-03      -183.65545084    236.024383    0.13176   -0.05218    0.00000    6    fixocc
    8      0.238D-02      0.173D-03      -183.65549976    236.035284    0.12835   -0.05023    0.00000    7    diag,B
    9      0.458D-03      0.671D-04      -183.65551019    236.034988    0.12132   -0.05043    0.00000    8    diag,B
   10      0.205D-03      0.301D-04      -183.65551190    236.037375    0.11897   -0.05036    0.00000    9    orth
   11      0.702D-04      0.133D-04      -183.65551227    236.036081    0.11844   -0.05035    0.00000    9    diag,B
   12      0.548D-04      0.714D-05      -183.65551239    236.036788    0.11780   -0.05043    0.00000    9    diag,B
   13      0.228D-04      0.333D-05      -183.65551242    236.036652    0.11765   -0.05045    0.00000    9    diag,B
   14      0.127D-04      0.124D-05      -183.65551242    236.036634    0.11767   -0.05046    0.00000    9    diag,B
   15      0.403D-05      0.480D-06      -183.65551242    236.036600    0.11770   -0.05046    0.00000    9    diag,B
   16      0.210D-05      0.168D-06      -183.65551242    236.036601    0.11771   -0.05046    0.00000    9    diag,B
   17      0.550D-06      0.822D-07      -183.65551242    236.036602    0.11771   -0.05046    0.00000    0    orth

 Final alpha occupancy:  10   2
 Final beta  occupancy:   8   2

 !RHF STATE 1.1 Energy               -183.655512424075
 Nuclear energy                        51.82085092
 One-electron energy                 -353.49466442
 Two-electron energy                  118.01830107
 Virial quotient                       -1.00033982
 !RHF STATE 1.1 Dipole moment           0.11770942    -0.05045683     0.00000000
 Dipole moment /Debye                   0.29916792    -0.12824007     0.00000000

 Orbital energies:

         1.1          2.1          3.1          4.1          5.1          6.1          7.1          8.1          9.1         10.1
    -20.659613   -15.717752   -15.710407    -1.470444    -1.276493    -0.814608    -0.661997    -0.620922    -0.687868    -0.561600

        11.1         12.1
      0.102660     0.113454

         1.2          2.2          3.2          4.2
     -0.632244    -0.539817     0.113696     0.156435

 HOMO      2.2    -0.539817 =     -14.6892eV
 LUMO     11.1     0.102660 =       2.7935eV
 LUMO-HOMO         0.642477 =      17.4827eV


 **********************************************************************************************************************************
 DATASETS  * FILE   NREC   LENGTH (MB)   RECORD NAMES
              1      18       19.21       500      610      700      900      950      970     1000      129      960     1100   
                                          VAR    BASINP    GEOM    SYMINP    ZMAT    AOBASIS   BASIS     P2S    ABASIS      S 
                                         1400     1410     1200     1210     1080     1600     1650     1700   
                                           T        V       H0       H01     AOSYM     SMH    MOLCAS    OPER   

              2       4        2.86       700     1000      520     2100   
                                         GEOM     BASIS   MCVARS     RHF  

 PROGRAMS   *        TOTAL       RHF       INT
 CPU TIMES  *         0.52      0.12      0.25
 REAL TIME  *         1.19 SEC
 DISK USED  *        99.69 MB      
 SF USED    *         0.01 MB      
 GA USED    *         0.00 MB       (max)       0.00 MB       (current)
 **********************************************************************************************************************************


 PROGRAM * MULTI (Direct Multiconfiguration SCF)       Authors: P.J. Knowles, H.-J. Werner (1984)     S.T. Elbert (1988)


 Number of closed-shell orbitals:   5 (   5   0 )
 Number of active  orbitals:       10 (   7   3 )
 Number of external orbitals:      54 (  36  18 )

 State symmetry 1

 Number of electrons:    12    Spin symmetry=Triplet   Space symmetry=1
 Number of states:        1
 Number of CSFs:      10374   (15120 determinants, 30240 intermediate states)

 Molecular orbitals read from record     2100.2  Type=RHF/CANONICAL (state 1.1)

 Wavefunction dump at record             2140.2

 Convergence thresholds  0.10E-01 (gradient)  0.10E-05 (energy)  0.10E-02 (step length)

 Number of orbital rotations:      521   (    35 Core/Active    180 Core/Virtual   0 Active/Active    306 Active/Virtual)
 Total number of variables:      15641


 ITER. MIC  NCI  NEG     ENERGY(VAR)     ENERGY(PROJ)   ENERGY CHANGE     GRAD(0)  GRAD(ORB)   GRAD(CI)     STEP       TIME

   1   70   26    0    -183.67158451    -183.80291683   -0.13133233    0.03296556 0.00067221 0.01568494  0.14D+01      0.44
   2   41   35    0    -183.80496612    -183.81345902   -0.00849290    0.05349779 0.00000199 0.00235130  0.42D+00      1.12
   3   37   31    0    -183.81435531    -183.81462000   -0.00026470    0.01278249 0.00000011 0.00024286  0.67D-01      1.68
   4   28   25    0    -183.81462779    -183.81462849   -0.00000070    0.00063225 0.00000083 0.00002369  0.32D-02      2.16
   5   27   13    0    -183.81462849    -183.81462849   -0.00000000    0.00000550 0.00000008 0.00000142  0.10D-04      2.38

 ** WVFN ****  CONVERGENCE REACHED, FINAL GRADIENT:  0.49D-06


 First order charge density matrix for state 1.1 saved on record  2140.2 (density set 1)

 Results for state 1.1
 =====================

 !MCSCF STATE 1.1 Energy             -183.814628491819
 Nuclear energy                        51.82085092
 Kinetic energy                       183.96396380
 One electron energy                 -353.70977488
 Two electron energy                  118.07429547
 Virial ratio                           1.99918824

 !MCSCF STATE 1.1 Dipole moment         0.11546876    -0.06956524     0.00000000
 Dipole moment /Debye                   0.29347308    -0.17680563     0.00000000


 Natural orbital dump at molpro section  2140.2    (Orbital set 2)



 **********************************************************************************************************************************
 DATASETS  * FILE   NREC   LENGTH (MB)   RECORD NAMES
              1      19       22.92       500      610      700      900      950      970     1000      129      960     1100   
                                          VAR    BASINP    GEOM    SYMINP    ZMAT    AOBASIS   BASIS     P2S    ABASIS      S 
                                         1400     1410     1200     1210     1080     1600     1650     1700     1380   
                                           T        V       H0       H01     AOSYM     SMH    MOLCAS    OPER     JKOP   

              2       5        5.45       700     1000      520     2100     2140   
                                         GEOM     BASIS   MCVARS     RHF     MCSCF   

 PROGRAMS   *        TOTAL    CASSCF       RHF       INT
 CPU TIMES  *         3.06      2.54      0.12      0.25
 REAL TIME  *         4.40 SEC
 DISK USED  *        99.69 MB      
 SF USED    *        24.77 MB      
 GA USED    *         0.00 MB       (max)       0.00 MB       (current)
 **********************************************************************************************************************************


 PROGRAM * RS2 (Multireference RS Perturbation Theory)     Authors: H.-J. Werner (1993), P. Celani (1998)


 Level shift= 0.20

 Convergence thresholds:  THRVAR = 1.00D-10  THRDEN = 1.00D-08

 Number of optimized states:  1  Roots:   1
 Number of reference states:  1  Roots:   1

 Reference symmetry:                   1   Triplet 
 Number of electrons:                 22
 Maximum number of shells:             6
 Maximum number of spin couplings:   297

 Reference space:     3283 conf    10374 CSFs
 N elec internal:    24345 conf   101970 CSFs
 N-1 el internal:    36037 conf   292275 CSFs
 N-2 el internal:    35292 conf   548774 CSFs

 Number of electrons in valence space:                     16
 Maximum number of open shell orbitals in reference space:  8
 Maximum number of open shell orbitals in internal spaces: 12


 Number of core orbitals:           3 (   3   0 )
 Number of closed-shell orbitals:   2 (   2   0 )
 Number of active  orbitals:       10 (   7   3 )
 Number of external orbitals:      54 (  36  18 )

 Molecular orbitals read from record     2140.2  Type=MCSCF/NATURAL (state 1.1)

 Coulomb and exchange operators available. No transformation done.

 Number of p-space configurations:  23

 Reference wavefunction optimized for reference space (refopt=1)

 State     Reference Energy 
   1        -183.81462849

 Number of blocks in overlap matrix:     4   Smallest eigenvalue:  0.16D-01
 Number of N-2 electron functions:     144
 Number of N-1 electron functions:  292275

 Number of internal configurations:                50982
 Number of singly external configurations:       7897302
 Number of doubly external configurations:        108216
 Total number of contracted configurations:      8056500
 Total number of uncontracted configurations:  417836877

 Weight factors for SA-density in H0:    1.000000

 FIMAX=  0.27D+00  FXMAX=  0.50D-07  DIAG=  F  F  NOREF=1  NOINT=0  IHPPD=2

 Nuclear energy:                      51.82085092
 Core energy:                       -173.21492409
 Zeroth-order valence energy:        -12.09864994
 Zeroth-order total energy:         -133.49272310
 First-order energy:                 -50.32190539

 Using uncontracted singles

 Diagonal Coupling coefficients finished.               Storage: 1766116 words, CPU-Time:      0.01 seconds.
 Energy denominators for pairs finished in 0 passes.    Storage: 1759081 words, CPU-time:      0.00 seconds.

 A level shift of 0.20 is applied.

  ITER. STATE  ROOT     SQ.NORM     CORR.ENERGY   TOTAL ENERGY   ENERGY CHANGE       DEN1      VAR(S)    VAR(P)      TIME
    1     1     1     1.03731169    -0.00746234  -183.82209083    -0.00746234    -0.29783694  0.37D-01  0.42D-01     9.58
    2     1     1     1.08391327    -0.32196218  -184.13659067    -0.31449984    -0.00277231  0.52D-03  0.17D-03    18.14
    3     1     1     1.08531139    -0.32438711  -184.13901560    -0.00242493    -0.00155469  0.20D-04  0.32D-05    26.55
    4     1     1     1.08560713    -0.32451058  -184.13913908    -0.00012347    -0.00005208  0.11D-05  0.15D-06    34.95
    5     1     1     1.08566888    -0.32452597  -184.13915446    -0.00001539    -0.00004789  0.93D-07  0.72D-08    43.49
    6     1     1     1.08567752    -0.32452790  -184.13915639    -0.00000193    -0.00000034  0.11D-07  0.51D-09    51.80
    7     1     1     1.08568065    -0.32452855  -184.13915704    -0.00000064    -0.00000242  0.15D-08  0.40D-10    60.07
    8     1     1     1.08568093    -0.32452860  -184.13915709    -0.00000005     0.00000017  0.26D-09  0.41D-11    68.34
    9     1     1     1.08568115    -0.32452864  -184.13915714    -0.00000004    -0.00000018  0.48D-10  0.49D-12    76.68
   10     1     1     1.08568115    -0.32452864  -184.13915713     0.00000000     0.00000003  0.95D-11  0.68D-13    84.94
   11     1     1     1.08568117    -0.32452865  -184.13915714    -0.00000000    -0.00000002  0.20D-11  0.10D-13    93.17

 Energies without level shift correction:

   11     1     1     1.08568117    -0.30739241  -184.12202090

 Energy contributions for state 1.1:
 ===================================

            Energy contr.      SQ.Norm of FOWF
 Space I     -0.00550534          0.00261349
 Space S     -0.12160020          0.04058188
 Space P     -0.18028687          0.04248580


 =====================================
 Analysis of CPU times by interactions
 =====================================

       I      S      P

 I   2.3%
 S  15.6%  33.3%
 P   0.7%  36.3%   0.1%

 Initialization:   6.4%
 Other:            5.4%

 Total CPU:       93.2 seconds
 =====================================


 Initialize record     7000.1
 Now solve CP-CASPT2 equations

 A level shift of 0.20 is applied.

  ITER. STATE  ROOT     SQ.NORM     CORR.ENERGY   TOTAL ENERGY   ENERGY CHANGE       DEN1      VAR(S)    VAR(P)      TIME
    1     1     1     1.05316054    -0.01613745  -183.83076594    -0.01613745    -0.36691984  0.51D-01  0.52D-01   114.07
    2     1     1     1.10919413    -0.39959149  -184.21421998    -0.38345404    -0.00416254  0.72D-03  0.23D-03   122.60
    3     1     1     1.11129695    -0.40289376  -184.21752225    -0.00330227    -0.00208224  0.29D-04  0.44D-05   131.02
    4     1     1     1.11171293    -0.40306616  -184.21769465    -0.00017240    -0.00008736  0.16D-05  0.23D-06   139.39
    5     1     1     1.11180562    -0.40308899  -184.21771748    -0.00002283    -0.00006599  0.14D-06  0.10D-07   147.80
    6     1     1     1.11181851    -0.40309185  -184.21772034    -0.00000286    -0.00000135  0.15D-07  0.74D-09   156.08
    7     1     1     1.11182329    -0.40309283  -184.21772132    -0.00000098    -0.00000338  0.22D-08  0.56D-10   164.32
    8     1     1     1.11182374    -0.40309292  -184.21772141    -0.00000009     0.00000018  0.36D-09  0.57D-11   172.80
    9     1     1     1.11182407    -0.40309299  -184.21772148    -0.00000007    -0.00000026  0.67D-10  0.68D-12   181.32
   10     1     1     1.11182407    -0.40309298  -184.21772148     0.00000000     0.00000004  0.13D-10  0.94D-13   189.60
   11     1     1     1.11182410    -0.40309299  -184.21772148    -0.00000001    -0.00000003  0.27D-11  0.14D-13   197.83

 Energies without level shift correction:

   11     1     1     1.11182410    -0.38072817  -184.19535666

 Energy contributions for state 1.1:
 ===================================

            Energy contr.      SQ.Norm of FOWF
 Space I     -0.00779677          0.00378659
 Space S     -0.15678528          0.05555137
 Space P     -0.21614612          0.05248615


 =====================================
 Analysis of CPU times by interactions
 =====================================

       I      S      P

 I   1.1%
 S  14.4%  31.3%
 P   0.3%  34.3%   0.0%

 Initialization:  48.8%
 Other:          -30.3%

 Total CPU:      197.8 seconds
 =====================================



 Reference coefficients greater than 0.0500000
 =============================================
 22222//00220           0.9532522
 22222//00202          -0.1266834
 22220//20220          -0.1102442
 2222///\02/\          -0.0705971
 2222///\02\/           0.0687893
 222/2\//0220          -0.0649157
 2222/\//02/\          -0.0599209



 RESULTS FOR STATE 1.1
 =====================

 Coefficient of reference function:   C(0) = 1.00000000 (fixed)   1.00000000 (relaxed)

 Energy contributions of configuration classes

 CLASS          SQ.NORM        ECORR1        ECORR2
 +++++++++++++++++++++++++++++++++++++++++++++++++++
 Internals    0.00378659   -0.00653977    0.27901120
 Singles      0.05555137   -0.13785059   -0.25114448
 Pairs        0.05248615   -0.19727452   -0.35239536
 Total        1.11182410   -0.34166488   -0.32452865
 +++++++++++++++++++++++++++++++++++++++++++++++++++


 Reference energy                    -183.81462849
 Nuclear energy                        51.82085092
 Kinetic energy                       184.21163417
 One electron energy                 -353.48472622
 Two electron energy                  117.52471815
 Virial quotient                       -0.99960656
 Correlation energy                    -0.32452865
 !RSPT2 STATE 1.1 Energy             -184.139157137910

 Properties without orbital relaxation:

 !RSPT2 STATE 1.1 Dipole moment         0.12588959    -0.06702494     0.00000000
 Dipole moment /Debye                   0.31995845    -0.17034926     0.00000000


 **********************************************************************************************************************************


 PROGRAM * MULTI (Direct Multiconfiguration SCF)       Authors: P.J. Knowles, H.-J. Werner (1984)     S.T. Elbert (1988)


 Number of closed-shell orbitals:   5 (   5   0 )
 Number of active  orbitals:       10 (   7   3 )
 Number of external orbitals:      54 (  36  18 )

 State symmetry 1

 Number of electrons:    12    Spin symmetry=Triplet   Space symmetry=1
 Number of states:        1
 Number of CSFs:      10374
 
 Maximum number of shells:             6
 Maximum number of spin couplings:   297

 Storage for configuration lists   23753, coupling coefficients1494454, address lists 248643

 Molecular orbitals read from record     2140.2  Type=MCSCF/NATURAL (state 1.1)

 Wavefunction dump at record             3140.4

 Convergence thresholds  0.10E-04 (gradient)  0.10E-07 (energy)  0.10E-02 (step length)

 Eigenvalues of redundancy matrix
   1- 10   -0.000000   -0.000000   -0.000000   -0.000000   -0.000000   -0.000000   -0.000000   -0.000000   -0.000000    0.000000
  11- 20    0.000000    0.000000    0.000000    0.000000    0.000000    0.000000    0.000000    0.000000    0.000000    0.000000
  21- 24    0.000000    0.000000    0.000000    0.000000

 Number of orbital rotations:      521   (    35 Core/Active    180 Core/Virtual   0 Active/Active    306 Active/Virtual)
 Total number of variables:      10895


 ITER. MIC  NCI  NEG     ENERGY(VAR)     ENERGY(PROJ)   ENERGY CHANGE     GRAD(0)  GRAD(ORB)   GRAD(CI)     STEP       TIME

   1   27   20    0    -183.81462849    -183.81462849    0.00000000    0.00000048 0.00000000 0.00000020  0.00D+00      1.02

 Warning: orbitals not optimized!

 Solving MCSCF z-vector equations for state  1.1, requested accuracy=      0.10D-05
 Convergence reached in  19 iterations ( 19 expansion vectors), accuracy=  0.67D-06

 Properties including orbital relaxation:

 !RSPT2 dipole moments (ED):            0.19873625    -0.07414083     0.00000000

 RSPT2 Gradient info saved on record         5200.1

 CPU-time for rhs:           30.95 sec
 CPU-time for cpmcscf:        3.18 sec
 CPU-time for densities:      0.00 sec


 **********************************************************************************************************************************
 DATASETS  * FILE   NREC   LENGTH (MB)   RECORD NAMES
              1      25      153.92       500      610      700      900      950      970     1000      129      960     1100   
                                          VAR    BASINP    GEOM    SYMINP    ZMAT    AOBASIS   BASIS     P2S    ABASIS      S 
                                         1400     1410     1200     1210     1080     1600     1650     1700     1380     7000   
                                           T        V       H0       H01     AOSYM     SMH    MOLCAS    OPER     JKOP   
                                         7001     5200     5210     7009     7005   
                                                 RS2GRAD  RS2GRAD    

              2       5        5.45       700     1000      520     2100     2140   
                                         GEOM     BASIS   MCVARS     RHF     MCSCF   

 PROGRAMS   *        TOTAL       RS2    CASSCF       RHF       INT
 CPU TIMES  *       265.29    262.22      2.54      0.12      0.25
 REAL TIME  *       276.81 SEC
 DISK USED  *        99.69 MB      
 SF USED    *       611.64 MB      
 GA USED    *         0.00 MB       (max)       0.00 MB       (current)
 **********************************************************************************************************************************
 
 STEP  1 RHF-SCF        O.K.    
 STEP  2 CASSCF         O.K.    
 STEP  3 RS2            O.K.    
 SETTING MOLPRO_ENERGY  =      -184.13915714  AU                              
 MOLPRO_ENERGY    =       -0.184139157137910E+03 AU


 PROGRAM * ALASKA (Gradient of the energy)     Author: R. Lindh


 RSPT2 Gradient info restored from record    5200.1

 Number of core orbitals:           3 (   3   0 )
 Number of closed-shell orbitals:   2 (   2   0 )
 Number of active  orbitals:       10 (   7   3 )
 Number of external orbitals:      54 (  36  18 )

 Integral thresholds in T2TRAN:            1.0D-10 (PROD)

 Available memory for Transformation:1277797029 words
 Memory needed for incore algorithm:     402848 words
 Minimum memory needed:                  148238 words

 Memory used for transformation:           0.40 MW
 Available memory for gradients:        1279.39 MW

 CPU for transformation:                   0.00 sec
 CPU for integrals and gradient:           1.27 sec
 Total CPU:                                1.28 sec

 Prescreening statistics:
 ========================

 Total number of shell quadruplets:        2.93D+02
 Number of shell quadruplets processed:    2.93D+02 (100.00%)

 RSPT2 GRADIENT FOR STATE 1.1

 Atom          dE/dx               dE/dy               dE/dz

   1        -0.063875826         0.039155877         0.000000000
   2         0.000440805        -0.014506956         0.000000000
   3         0.063435021        -0.024648922         0.000000000

 Nuclear force contribution to virial =        -0.224343133


 **********************************************************************************************************************************
 DATASETS  * FILE   NREC   LENGTH (MB)   RECORD NAMES
              1      25      153.92       500      610      700      900      950      970     1000      129      960     1100   
                                          VAR    BASINP    GEOM    SYMINP    ZMAT    AOBASIS   BASIS     P2S    ABASIS      S 
                                         1400     1410     1200     1210     1080     1600     1650     1700     1380     7000   
                                           T        V       H0       H01     AOSYM     SMH    MOLCAS    OPER     JKOP   
                                         7001     5200     5210     7009     7005   
                                                 RS2GRAD  RS2GRAD    

              2       5        5.45       700     1000      520     2100     2140   
                                         GEOM     BASIS   MCVARS     RHF     MCSCF   

 PROGRAMS   *        TOTAL     FORCE       RS2    CASSCF       RHF       INT
 CPU TIMES  *       267.52      2.23    262.22      2.54      0.12      0.25
 REAL TIME  *       280.51 SEC
 DISK USED  *        99.69 MB      
 SF USED    *       611.64 MB      
 GA USED    *         0.00 MB       (max)       0.00 MB       (current)
 **********************************************************************************************************************************

 *** MOLGRAD
                                                                                                                                                                                                                                                                

     NN          GRADX             GRADY        GRADZ
    1.0   -6.38758260D-02    3.91558773D-02   0.0D+00
    2.0    4.40805103D-04   -1.45069556D-02   0.0D+00
    3.0    6.34350209D-02   -2.46489217D-02   0.0D+00
                                                  

 RS2/aug-cc-pVDZ energy=   -184.139157137910

        RS2             CASSCF          RHF-SCF 
   -184.13915714   -183.81462849   -183.65551242
 **********************************************************************************************************************************
 Molpro calculation terminated
 Variable memory released
