
 Primary working directories    : /scratch/kmoore
 Secondary working directories  : /scratch/kmoore
 Wavefunction directory         : /scratch/kmoore/
 Main file repository           : /scratch/kmoore/

 SHA1      : b6b3a4772808bb2d43777f23454e145ddfe12dc3
 NAME      : 2015.1.1
 ARCHNAME  : linux/x86_64
 FC        : /soft/mvapich2/2.2b_psm/intel-15.0/bin/mpif90
 BLASLIB   : -L/soft/intel/15.0.1/composer_xe_2015.0.090/mkl/lib/intel64 -lmkl_intel_ilp64 -lmkl_sequential -lmkl_core
 id        : anlgov

 Nodes     nprocs
 b441         3
 Number of processes for MPI-2 version of Molpro:   nprocs(total)=    4   nprocs(compute)=    3   nprocs(helper)=    1

 Using customized tuning parameters: mindgm=1; mindgv=20; mindgc=4; mindgr=1; noblas=0; minvec=7
 default implementation of scratch files=sf  

 ***,CASPT2 calculation for the singlet state
 memory,1000,m
 
 nosym
 geometry
 N      1.054968198610399    -0.190497136933746    -0.000000000000000
 C     -0.000000000000041     0.444590917545206     0.000000000000000
 N     -1.054968198610434    -0.190497136933725    -0.000000000000000
 end
 
 nn(1)=1
 nn(2)=2
 nn(3)=3
 
 basis=cc-pVDZ
 {uhf,maxit=1000
   wf,20,1,2,0}
 {ump2}
 {freq,noproject,symm=no
  print,hessian}
 

 Variables initialized (889), CPU time= 0.01 sec
 Commands  initialized (702), CPU time= 0.01 sec, 572 directives.
 Default parameters read. Elapsed time= 0.06 sec

 Checking input...
 Passed
1


                                         ***  PROGRAM SYSTEM MOLPRO  ***
                                       Copyright, TTI GmbH Stuttgart, 2015
                                    Version 2015.1 linked Jan  8 2016 07:59:11


 **********************************************************************************************************************************
 LABEL *   CASPT2 calculation for the singlet state                                      
  64 bit mpp version                                                                     DATE: 11-Mar-19          TIME: 17:10:53  
 **********************************************************************************************************************************

 SHA1:             b6b3a4772808bb2d43777f23454e145ddfe12dc3
 **********************************************************************************************************************************

 Variable memory set to 1000000000 words,  buffer space   230000 words

 ZSYMEL=NOSYM
 

Geometry recognized as XYZ

 SETTING NN(1)          =         1.00000000                                  
 SETTING NN(2)          =         2.00000000                                  
 SETTING NN(3)          =         3.00000000                                  
 SETTING BASIS          =    CC-PVDZ


 Recomputing integrals since basis changed


 Using spherical harmonics

 Library entry N      S cc-pVDZ              selected for orbital group  1
 Library entry N      P cc-pVDZ              selected for orbital group  1
 Library entry N      D cc-pVDZ              selected for orbital group  1
 Library entry C      S cc-pVDZ              selected for orbital group  2
 Library entry C      P cc-pVDZ              selected for orbital group  2
 Library entry C      D cc-pVDZ              selected for orbital group  2

1PROGRAM * SEWARD (Integral evaluation for generally contracted gaussian basis sets)     Author: Roland Lindh, 1990

 Geometry written to block  1 of record 700


 Point group  C1  



 ATOMIC COORDINATES

 NR  ATOM    CHARGE       X              Y              Z

   1  N       7.00    1.993600965   -0.359987416    0.000000000
   2  C       6.00   -0.000000000    0.840155072    0.000000000
   3  N       7.00   -1.993600965   -0.359987416    0.000000000

 Bond lengths in Bohr (Angstrom)

 1-2  2.326969446  2-3  2.326969446
     ( 1.231379201)     ( 1.231379201)

 Bond angles

  1-2-3  117.90434194

 NUCLEAR CHARGE:                   20
 NUMBER OF PRIMITIVE AOS:          81
 NUMBER OF SYMMETRY AOS:           78
 NUMBER OF CONTRACTIONS:           42   (  42A   )
 NUMBER OF CORE ORBITALS:           3   (   3A   )
 NUMBER OF VALENCE ORBITALS:       12   (  12A   )


 NUCLEAR REPULSION ENERGY   48.38777411

 EXTRA SYMMETRY OF AOS IN SYMMETRY 1:   1 1 1 1 1 2 1 1 2 1   1 2 1 2 1 1 1 1 1 2   1 1 2 1 1 2 1 2 1 1   1 1 1 2 1 1 2 1 1 2
                                        1 2

 Eigenvalues of metric

         1 0.518E-02 0.932E-02 0.281E-01 0.725E-01 0.727E-01 0.808E-01 0.100E+00 0.113E+00


 Contracted 2-electron integrals neglected if value below      1.0D-11
 AO integral compression algorithm  1   Integral accuracy      1.0D-11

     1.573 MB (compressed) written to integral file ( 42.2%)

     Node minimum: 0.524 MB, node maximum: 0.524 MB


 NUMBER OF SORTED TWO-ELECTRON INTEGRALS:     136353.     BUFFER LENGTH:  32768
 NUMBER OF SEGMENTS:   1  SEGMENT LENGTH:     136353      RECORD LENGTH: 524288

 Memory used in sort:       0.69 MW

 SORT1 READ      544483. AND WROTE       61193. INTEGRALS IN      1 RECORDS. CPU TIME:     0.00 SEC, REAL TIME:     0.01 SEC
 SORT2 READ      187869. AND WROTE      408156. INTEGRALS IN      6 RECORDS. CPU TIME:     0.01 SEC, REAL TIME:     0.00 SEC

 Node minimum:      135751.  Node maximum:      136353. integrals

 OPERATOR DM      FOR CENTER  0  COORDINATES:    0.000000    0.000000    0.000000


 **********************************************************************************************************************************
 DATASETS  * FILE   NREC   LENGTH (MB)   RECORD NAMES
              1      18       19.17       500      610      700      900      950      970     1000      129      960     1100   
                                          VAR    BASINP    GEOM    SYMINP    ZMAT    AOBASIS   BASIS     P2S    ABASIS      S 
                                         1400     1410     1200     1210     1080     1600     1650     1700   
                                           T        V       H0       H01     AOSYM     SMH    MOLCAS    OPER   

 PROGRAMS   *        TOTAL       INT
 CPU TIMES  *         0.35      0.24
 REAL TIME  *         0.80 SEC
 DISK USED  *        13.63 MB      
 GA USED    *         0.00 MB       (max)       0.00 MB       (current)
 **********************************************************************************************************************************

1PROGRAM * UHF-SCF       Authors: W. Meyer, H.-J. Werner


 NUMBER OF ELECTRONS:      11+    9-    SPACE SYMMETRY=1    SPIN SYMMETRY: Triplet 
 CONVERGENCE THRESHOLDS:    1.00E-06 (Density)    1.00E-07 (Energy)
 MAX. NUMBER OF ITERATIONS:     1000
 INTERPOLATION TYPE:            DIIS
 INTERPOLATION STEPS:              2 (START)      1 (STEP)
 LEVEL SHIFTS:                  0.20 (ALPHA)   0.20 (BETA) 



 Orbital guess generated from atomic densities. Full valence occupancy:   15

 Molecular orbital dump at record        2200.2

 Initial alpha occupation  11
 Initial beta  occupation   9

 ITERATION    DDIFF          GRAD             ENERGY        2-EL.EN.            DIPOLE MOMENTS         DIIS
    1      0.000D+00      0.000D+00      -146.55352864    196.439350    0.00000    1.04175   -0.00000    0
    2      0.167D-01      0.729D-02      -146.60588767    197.588401    0.00000    0.56507   -0.00000    1
    3      0.484D-02      0.339D-02      -146.62472111    197.784070    0.00000    0.56710   -0.00000    2
    4      0.400D-02      0.260D-02      -146.64608428    197.862778    0.00000    0.49584   -0.00000    3
    5      0.452D-02      0.181D-02      -146.66353225    197.889346    0.00000    0.46242   -0.00000    4
    6      0.475D-02      0.107D-02      -146.67223832    197.929911    0.00000    0.47791   -0.00000    5
    7      0.225D-02      0.492D-03      -146.67350942    197.976318    0.00000    0.49212   -0.00000    6
    8      0.470D-03      0.175D-03      -146.67359786    197.960970    0.00000    0.49183   -0.00000    7
    9      0.390D-03      0.740D-04      -146.67362090    197.971085    0.00000    0.49173   -0.00000    8
   10      0.215D-03      0.443D-04      -146.67362653    197.966991    0.00000    0.49005   -0.00000    9
   11      0.120D-03      0.294D-04      -146.67363042    197.968346    0.00000    0.48860   -0.00000    9
   12      0.687D-04      0.110D-04      -146.67363099    197.967576    0.00000    0.48757   -0.00000    9
   13      0.173D-04      0.390D-05      -146.67363106    197.967804    0.00000    0.48734   -0.00000    9
   14      0.270D-05      0.885D-06      -146.67363106    197.967785    0.00000    0.48731   -0.00000    8
   15      0.114D-05      0.386D-06      -146.67363106    197.967772    0.00000    0.48731   -0.00000    8
   16      0.344D-06      0.132D-06      -146.67363106    197.967771    0.00000    0.48731   -0.00000    8
   17      0.172D-06      0.558D-07      -146.67363106    197.967771    0.00000    0.48731   -0.00000    7
 
 Final alpha occupancy:  11
 Final beta  occupancy:   9

 !UHF STATE 1.1 Energy               -146.673631058905
 Nuclear energy                        48.38777411
 One-electron energy                 -294.04529062
 Two-electron energy                   98.98388545
 Virial quotient                       -0.99770569
 !UHF STATE 1.1 Dipole moment           0.00000000     0.48730729    -0.00000000
 Dipole moment /Debye                   0.00000000     1.23853046    -0.00000000

 Orbital energies for positive spin:

         1.1          2.1          3.1          4.1          5.1          6.1          7.1          8.1          9.1         10.1
    -15.663569   -15.663490   -11.310074    -1.382327    -1.225380    -0.703046    -0.657824    -0.650762    -0.625444    -0.516573

        11.1         12.1         13.1
     -0.495561     0.085830     0.223178

 Orbital energies for negative spin:

         1.1          2.1          3.1          4.1          5.1          6.1          7.1          8.1          9.1         10.1
    -15.610514   -15.610487   -11.346483    -1.287093    -1.034290    -0.645582    -0.556171    -0.552200    -0.540651     0.082550

        11.1         12.1         13.1
      0.121391     0.132967     0.279267

 HOMO     11.1    -0.495561 =     -13.4849eV
 LUMO    -10.1     0.082550 =       2.2463eV
 LUMO-HOMO         0.578110 =      15.7312eV

 EXPECTATION VALUE OF S**2:             2.65770295

 Occupation number threshold for canonical orbitals:  1.999000 (occupied),  0.001000 (virtual)

 Number of pseudo-canonical orbitals per symmetry:    4
 Number of active natural orbitals per symmetry:     12

 Natural orbitals saved to record    2200.2 (Orbital set 3)

 Orbital spaces for UNO-CAS (Min. occupation: 0.020  Max. occupation: 1.980):

 Closed:        7
 Active:        6


 **********************************************************************************************************************************
 DATASETS  * FILE   NREC   LENGTH (MB)   RECORD NAMES
              1      18       19.17       500      610      700      900      950      970     1000      129      960     1100   
                                          VAR    BASINP    GEOM    SYMINP    ZMAT    AOBASIS   BASIS     P2S    ABASIS      S 
                                         1400     1410     1200     1210     1080     1600     1650     1700   
                                           T        V       H0       H01     AOSYM     SMH    MOLCAS    OPER   

              2       4        0.48       700     1000      520     2200   
                                         GEOM     BASIS   MCVARS     UHF  

 PROGRAMS   *        TOTAL       UHF       INT
 CPU TIMES  *         0.40      0.05      0.24
 REAL TIME  *         0.85 SEC
 DISK USED  *        13.63 MB      
 SF USED    *         0.50 MB      
 GA USED    *         0.00 MB       (max)       0.00 MB       (current)
 **********************************************************************************************************************************


1PROGRAM * UMP2 (Unrestricted open-shell)     Authors: H.-J. Werner, 2001


 Convergence thresholds:  THRVAR = 1.00D-12  THRDEN = 1.00D-08

 Number of core orbitals:           3 (   3 )
 Number of closed-shell orbitals:   6 (   6 )
 Number of active  orbitals:        2 (   2 )
 Number of external orbitals:      31 (  31 )

 Reading UHF information from record   2200.2

                               TOTAL       A-A         B-B         A-B
 Pair energies:            -0.31258762 -0.05455517 -0.03521362 -0.22281882
 Singles energies:          0.00000000  0.00000000  0.00000000

 Reference energy                    -146.673631058905
 Correlation energy                    -0.312587616940
 !UMP2 STATE 1.1 Energy              -146.986218675845


 **********************************************************************************************************************************
 DATASETS  * FILE   NREC   LENGTH (MB)   RECORD NAMES
              1      18       19.17       500      610      700      900      950      970     1000      129      960     1100   
                                          VAR    BASINP    GEOM    SYMINP    ZMAT    AOBASIS   BASIS     P2S    ABASIS      S 
                                         1400     1410     1200     1210     1080     1600     1650     1700   
                                           T        V       H0       H01     AOSYM     SMH    MOLCAS    OPER   

              2       4        0.48       700     1000      520     2200   
                                         GEOM     BASIS   MCVARS     UHF  

 PROGRAMS   *        TOTAL      UMP2       UHF       INT
 CPU TIMES  *         0.44      0.04      0.05      0.24
 REAL TIME  *         0.91 SEC
 DISK USED  *        13.63 MB      
 SF USED    *         1.39 MB      
 GA USED    *         0.00 MB       (max)       0.00 MB       (current)
 **********************************************************************************************************************************


 PROGRAM * HESSIAN

 Computing numerical hessian using default procedure for command UMP2

 Symmetry elements for unique displacements: X  Z  

 Using no symmetry in wavefunction calculations

 Running default procedure: UHF-SCF000  UMP2
 

 Numerically approximating hessian using central energy differences
 Task   1   Incrementing variables GX1,GX1        by  0.010 0.010
 Task   2   Incrementing variables GX1,GX1        by -0.010-0.010
 Task   3   Incrementing variables GY1,GX1        by  0.010 0.010
 Task   4   Incrementing variables GY1,GX1        by -0.010-0.010
 Task   5   Incrementing variables GY1,GY1        by  0.010 0.010
 Task   6   Incrementing variables GY1,GY1        by -0.010-0.010
 Task   7   Incrementing variables GZ1,GZ1        by  0.010 0.010

 Skipping negative increment of variables    3   3 due to symmetry.
 Task   8   Incrementing variables GX2,GX1        by  0.010 0.010
 Task   9   Incrementing variables GX2,GX1        by -0.010-0.010
 Task  10   Incrementing variables GX2,GY1        by  0.010 0.010
 Task  11   Incrementing variables GX2,GY1        by -0.010-0.010
 Task  12   Incrementing variables GX2,GX2        by  0.010 0.010

 Skipping negative increment of variables    4   4 due to symmetry.
 Task  13   Incrementing variables GY2,GX1        by  0.010 0.010
 Task  14   Incrementing variables GY2,GX1        by -0.010-0.010
 Task  15   Incrementing variables GY2,GY1        by  0.010 0.010
 Task  16   Incrementing variables GY2,GY1        by -0.010-0.010
 Task  17   Incrementing variables GY2,GY2        by  0.010 0.010
 Task  18   Incrementing variables GY2,GY2        by -0.010-0.010
 Task  19   Incrementing variables GZ2,GZ1        by  0.010 0.010

 Skipping negative increment of variables    6   3 due to symmetry.
 Task  20   Incrementing variables GZ2,GZ2        by  0.010 0.010

 Skipping negative increment of variables    6   6 due to symmetry.
 Task  21   Incrementing variables GX3,GX1        by  0.010 0.010
 Task  22   Incrementing variables GX3,GX1        by -0.010-0.010
 Task  23   Incrementing variables GX3,GY1        by  0.010 0.010
 Task  24   Incrementing variables GX3,GY1        by -0.010-0.010
 Task  25   Incrementing variables GY3,GY1        by  0.010 0.010
 Task  26   Incrementing variables GY3,GY1        by -0.010-0.010
 Task  27   Incrementing variables GZ3,GZ1        by  0.010 0.010

 Skipping negative increment of variables    9   3 due to symmetry.

 Task list generated. Total number of displacements:     27

 Starting task   1.  CPU=     0.00 sec, Elapsed=     0.00 sec
 Incrementing variable GX1              by  0.005292 ANG   to    1.060260 ANG


 Recomputing integrals since geometry changed

1PROGRAM * SEWARD (Integral evaluation for generally contracted gaussian basis sets)     Author: Roland Lindh, 1990

 Geometry written to block  1 of record 700


 Point group  C1  



 ATOMIC COORDINATES

 NR  ATOM    CHARGE       X              Y              Z

   1  N       7.00    2.003600965   -0.359987416    0.000000000
   2  C       6.00   -0.000000000    0.840155072    0.000000000
   3  N       7.00   -1.993600965   -0.359987416    0.000000000

 Bond lengths in Bohr (Angstrom)

 1-2  2.335542511  2-3  2.326969446
     ( 1.235915872)     ( 1.231379201)

 Bond angles

  1-2-3  118.03086723

 NUCLEAR CHARGE:                   20
 NUMBER OF PRIMITIVE AOS:          81
 NUMBER OF SYMMETRY AOS:           78
 NUMBER OF CONTRACTIONS:           42   (  42A   )
 NUMBER OF CORE ORBITALS:           3   (   3A   )
 NUMBER OF VALENCE ORBITALS:       12   (  12A   )


 NUCLEAR REPULSION ENERGY   48.29077609

 EXTRA SYMMETRY OF AOS IN SYMMETRY 1:   1 1 1 1 1 2 1 1 2 1   1 2 1 2 1 1 1 1 1 2   1 1 2 1 1 2 1 2 1 1   1 1 1 2 1 1 2 1 1 2
                                        1 2

 Eigenvalues of metric

         1 0.519E-02 0.934E-02 0.282E-01 0.727E-01 0.732E-01 0.814E-01 0.101E+00 0.113E+00


 Contracted 2-electron integrals neglected if value below      1.0D-11
 AO integral compression algorithm  1   Integral accuracy      1.0D-11

     1.573 MB (compressed) written to integral file ( 42.3%)

     Node minimum: 0.524 MB, node maximum: 0.524 MB


 NUMBER OF SORTED TWO-ELECTRON INTEGRALS:     136353.     BUFFER LENGTH:  32768
 NUMBER OF SEGMENTS:   1  SEGMENT LENGTH:     136353      RECORD LENGTH: 524288

 Memory used in sort:       0.69 MW

 SORT1 READ      544483. AND WROTE       61337. INTEGRALS IN      1 RECORDS. CPU TIME:     0.01 SEC, REAL TIME:     0.01 SEC
 SORT2 READ      188301. AND WROTE      408156. INTEGRALS IN      6 RECORDS. CPU TIME:     0.01 SEC, REAL TIME:     0.01 SEC

 Node minimum:      135751.  Node maximum:      136353. integrals

 OPERATOR DM      FOR CENTER  0  COORDINATES:    0.000000    0.000000    0.000000
1PROGRAM * UHF-SCF       Authors: W. Meyer, H.-J. Werner


 NUMBER OF ELECTRONS:      11+    9-    SPACE SYMMETRY=1    SPIN SYMMETRY: Triplet 
 CONVERGENCE THRESHOLDS:    1.00E-07 (Density)    1.00E-08 (Energy)
 MAX. NUMBER OF ITERATIONS:     1000
 INTERPOLATION TYPE:            DIIS
 INTERPOLATION STEPS:              2 (START)      1 (STEP)
 LEVEL SHIFTS:                  0.20 (ALPHA)   0.20 (BETA) 

 Number of closed-shell orbitals:    9 (   9 )
 Number of open-shell orbitals:      2 (   2 )


 Molecular orbitals read from record     2200.2  Type=UHF/ALPHA (state 1.1)
 Molecular orbitals read from record     2200.2  Type=UHF/BETA (state 1.1)

 Molecular orbital dump at record        2200.1

 Initial alpha occupation  11
 Initial beta  occupation   9

 ITERATION    DDIFF          GRAD             ENERGY        2-EL.EN.            DIPOLE MOMENTS         DIIS
    1      0.000D+00      0.000D+00      -146.67455886    197.801903   -0.00049    0.48692   -0.00000    0
    2      0.301D-03      0.109D-03      -146.67457311    197.782599    0.00096    0.48636   -0.00000    1
    3      0.161D-03      0.516D-04      -146.67457799    197.780822    0.00101    0.48559   -0.00000    2
    4      0.104D-03      0.260D-04      -146.67458045    197.781999    0.00198    0.48505   -0.00000    3
    5      0.637D-04      0.149D-04      -146.67458142    197.782310    0.00242    0.48487   -0.00000    4
    6      0.313D-04      0.609D-05      -146.67458164    197.782472    0.00264    0.48486    0.00000    5
    7      0.136D-04      0.260D-05      -146.67458168    197.782424    0.00260    0.48486   -0.00000    6
    8      0.400D-05      0.112D-05      -146.67458169    197.782416    0.00259    0.48482   -0.00000    7
    9      0.215D-05      0.578D-06      -146.67458169    197.782420    0.00260    0.48480    0.00000    8
   10      0.985D-06      0.317D-06      -146.67458169    197.782413    0.00260    0.48479    0.00000    9
   11      0.699D-06      0.181D-06      -146.67458169    197.782414    0.00259    0.48478    0.00000    9
   12      0.424D-06      0.918D-07      -146.67458169    197.782413    0.00258    0.48478    0.00000    9
   13      0.174D-06      0.346D-07      -146.67458169    197.782413    0.00258    0.48477    0.00000    8
   14      0.418D-07      0.120D-07      -146.67458169    197.782413    0.00258    0.48477    0.00000    8
   15      0.210D-07      0.680D-08      -146.67458169    197.782413    0.00258    0.48477    0.00000    8
 
 Final alpha occupancy:  11
 Final beta  occupancy:   9

 !UHF STATE 1.1 Energy               -146.674581687566
 Nuclear energy                        48.29077609
 One-electron energy                 -293.85656434
 Two-electron energy                   98.89120657
 Virial quotient                       -0.99782846
 !UHF STATE 1.1 Dipole moment           0.00257984     0.48477486     0.00000000
 Dipole moment /Debye                   0.00655688     1.23209410     0.00000000

 Orbital energies for positive spin:

         1.1          2.1          3.1          4.1          5.1          6.1          7.1          8.1          9.1         10.1
    -15.664454   -15.663595   -11.310376    -1.380651    -1.225014    -0.703032    -0.656957    -0.650160    -0.625223    -0.516991

        11.1         12.1         13.1
     -0.496329     0.085841     0.222475

 Orbital energies for negative spin:

         1.1          2.1          3.1          4.1          5.1          6.1          7.1          8.1          9.1         10.1
    -15.611156   -15.610739   -11.346921    -1.285438    -1.033565    -0.645756    -0.555802    -0.552066    -0.539927     0.082474

        11.1         12.1         13.1
      0.121402     0.132437     0.278537

 HOMO     11.1    -0.496329 =     -13.5058eV
 LUMO    -10.1     0.082474 =       2.2442eV
 LUMO-HOMO         0.578803 =      15.7500eV

 EXPECTATION VALUE OF S**2:             2.66278275

 Occupation number threshold for canonical orbitals:  1.999000 (occupied),  0.001000 (virtual)

 Number of pseudo-canonical orbitals per symmetry:    4
 Number of active natural orbitals per symmetry:     12

 Natural orbitals saved to record    2200.1 (Orbital set 3)

 Orbital spaces for UNO-CAS (Min. occupation: 0.020  Max. occupation: 1.980):



 **********************************************************************************************************************************
 DATASETS  * FILE   NREC   LENGTH (MB)   RECORD NAMES
              1      19       19.35       500      610      700      900      950      970     1000      129      960     1100   
                                          VAR    BASINP    GEOM    SYMINP    ZMAT    AOBASIS   BASIS     P2S    ABASIS      S 
                                         1400     1410     1200     1210     1080     1600     1650     1700     2200   
                                           T        V       H0       H01     AOSYM     SMH    MOLCAS    OPER      UHF  

              2       5        0.49       700     1000      520     2200     5500   
                                         GEOM     BASIS   MCVARS     UHF     HINFO   

 PROGRAMS   *        TOTAL       UHF      UMP2       UHF       INT
 CPU TIMES  *         0.64      0.20      0.04      0.05      0.24
 REAL TIME  *         1.14 SEC
 DISK USED  *        72.73 MB      
 SF USED    *         1.39 MB      
 GA USED    *         0.00 MB       (max)       0.00 MB       (current)
 **********************************************************************************************************************************


1PROGRAM * UMP2 (Unrestricted open-shell)     Authors: H.-J. Werner, 2001


 Convergence thresholds:  THRVAR = 1.00D-12  THRDEN = 1.00D-08

 Number of core orbitals:           3 (   3 )
 Number of closed-shell orbitals:   6 (   6 )
 Number of active  orbitals:        2 (   2 )
 Number of external orbitals:      31 (  31 )

 Reading UHF information from record   2200.1

                               TOTAL       A-A         B-B         A-B
 Pair energies:            -0.31244718 -0.05454975 -0.03519043 -0.22270699
 Singles energies:          0.00000000  0.00000000  0.00000000

 Reference energy                    -146.674581687566
 Correlation energy                    -0.312447175186
 !UMP2 STATE 1.1 Energy              -146.987028862752


 **********************************************************************************************************************************
 DATASETS  * FILE   NREC   LENGTH (MB)   RECORD NAMES
              1      19       19.35       500      610      700      900      950      970     1000      129      960     1100   
                                          VAR    BASINP    GEOM    SYMINP    ZMAT    AOBASIS   BASIS     P2S    ABASIS      S 
                                         1400     1410     1200     1210     1080     1600     1650     1700     2200   
                                           T        V       H0       H01     AOSYM     SMH    MOLCAS    OPER      UHF  

              2       5        0.49       700     1000      520     2200     5500   
                                         GEOM     BASIS   MCVARS     UHF     HINFO   

 PROGRAMS   *        TOTAL      UMP2      UMP2       UHF       INT
 CPU TIMES  *         0.68      0.04      0.04      0.05      0.24
 REAL TIME  *         1.19 SEC
 DISK USED  *        72.73 MB      
 SF USED    *         1.39 MB      
 GA USED    *         0.00 MB       (max)       0.00 MB       (current)
 **********************************************************************************************************************************
 Starting task   2.  CPU=     0.28 sec, Elapsed=     0.28 sec
 Incrementing variable GX1              by -0.005292 ANG   to    1.049676 ANG


 Recomputing integrals since geometry changed

1PROGRAM * SEWARD (Integral evaluation for generally contracted gaussian basis sets)     Author: Roland Lindh, 1990

 Geometry written to block  1 of record 700


 Point group  C1  



 ATOMIC COORDINATES

 NR  ATOM    CHARGE       X              Y              Z

   1  N       7.00    1.983600965   -0.359987416    0.000000000
   2  C       6.00   -0.000000000    0.840155072    0.000000000
   3  N       7.00   -1.993600965   -0.359987416    0.000000000

 Bond lengths in Bohr (Angstrom)

 1-2  2.318407812  2-3  2.326969446
     ( 1.226848580)     ( 1.231379201)

 Bond angles

  1-2-3  117.77688154

 NUCLEAR CHARGE:                   20
 NUMBER OF PRIMITIVE AOS:          81
 NUMBER OF SYMMETRY AOS:           78
 NUMBER OF CONTRACTIONS:           42   (  42A   )
 NUMBER OF CORE ORBITALS:           3   (   3A   )
 NUMBER OF VALENCE ORBITALS:       12   (  12A   )


 NUCLEAR REPULSION ENERGY   48.48532740

 EXTRA SYMMETRY OF AOS IN SYMMETRY 1:   1 1 1 1 1 2 1 1 2 1   1 2 1 2 1 1 1 1 1 2   1 1 2 1 1 2 1 2 1 1   1 1 1 2 1 1 2 1 1 2
                                        1 2

 Eigenvalues of metric

         1 0.516E-02 0.929E-02 0.279E-01 0.721E-01 0.724E-01 0.803E-01 0.100E+00 0.113E+00


 Contracted 2-electron integrals neglected if value below      1.0D-11
 AO integral compression algorithm  1   Integral accuracy      1.0D-11

     1.573 MB (compressed) written to integral file ( 42.3%)

     Node minimum: 0.524 MB, node maximum: 0.524 MB


 NUMBER OF SORTED TWO-ELECTRON INTEGRALS:     136353.     BUFFER LENGTH:  32768
 NUMBER OF SEGMENTS:   1  SEGMENT LENGTH:     136353      RECORD LENGTH: 524288

 Memory used in sort:       0.69 MW

 SORT1 READ      544483. AND WROTE       61337. INTEGRALS IN      1 RECORDS. CPU TIME:     0.00 SEC, REAL TIME:     0.01 SEC
 SORT2 READ      188301. AND WROTE      408156. INTEGRALS IN      6 RECORDS. CPU TIME:     0.01 SEC, REAL TIME:     0.01 SEC

 Node minimum:      135751.  Node maximum:      136353. integrals

 OPERATOR DM      FOR CENTER  0  COORDINATES:    0.000000    0.000000    0.000000
1PROGRAM * UHF-SCF       Authors: W. Meyer, H.-J. Werner


 NUMBER OF ELECTRONS:      11+    9-    SPACE SYMMETRY=1    SPIN SYMMETRY: Triplet 
 CONVERGENCE THRESHOLDS:    1.00E-07 (Density)    1.00E-08 (Energy)
 MAX. NUMBER OF ITERATIONS:     1000
 INTERPOLATION TYPE:            DIIS
 INTERPOLATION STEPS:              2 (START)      1 (STEP)
 LEVEL SHIFTS:                  0.20 (ALPHA)   0.20 (BETA) 

 Number of closed-shell orbitals:    9 (   9 )
 Number of open-shell orbitals:      2 (   2 )


 Molecular orbitals read from record     2200.2  Type=UHF/ALPHA (state 1.1)
 Molecular orbitals read from record     2200.2  Type=UHF/BETA (state 1.1)

 Molecular orbital dump at record        2200.1

 Initial alpha occupation  11
 Initial beta  occupation   9

 ITERATION    DDIFF          GRAD             ENERGY        2-EL.EN.            DIPOLE MOMENTS         DIIS
    1      0.000D+00      0.000D+00      -146.67259869    198.134316    0.00049    0.48770   -0.00000    0
    2      0.302D-03      0.110D-03      -146.67261310    198.153900   -0.00096    0.48826   -0.00000    1
    3      0.161D-03      0.519D-04      -146.67261800    198.155696   -0.00098    0.48903   -0.00000    2
    4      0.104D-03      0.262D-04      -146.67262050    198.154567   -0.00192    0.48957   -0.00000    3
    5      0.647D-04      0.150D-04      -146.67262150    198.154269   -0.00235    0.48975   -0.00000    4
    6      0.321D-04      0.621D-05      -146.67262173    198.154111   -0.00258    0.48976   -0.00000    5
    7      0.141D-04      0.267D-05      -146.67262177    198.154159   -0.00254    0.48976   -0.00000    6
    8      0.408D-05      0.111D-05      -146.67262177    198.154166   -0.00253    0.48980   -0.00000    7
    9      0.212D-05      0.567D-06      -146.67262177    198.154159   -0.00253    0.48981   -0.00000    8
   10      0.979D-06      0.317D-06      -146.67262177    198.154166   -0.00253    0.48983   -0.00000    9
   11      0.678D-06      0.181D-06      -146.67262177    198.154164   -0.00253    0.48983   -0.00000    9
   12      0.413D-06      0.947D-07      -146.67262177    198.154165   -0.00252    0.48984   -0.00000    8
   13      0.193D-06      0.389D-07      -146.67262177    198.154165   -0.00252    0.48984   -0.00000    8
   14      0.447D-07      0.130D-07      -146.67262177    198.154165   -0.00252    0.48984   -0.00000    8
   15      0.279D-07      0.748D-08      -146.67262177    198.154165   -0.00252    0.48984   -0.00000    9
 
 Final alpha occupancy:  11
 Final beta  occupancy:   9

 !UHF STATE 1.1 Energy               -146.672621773548
 Nuclear energy                        48.48532740
 One-electron energy                 -294.23503182
 Two-electron energy                   99.07708265
 Virial quotient                       -0.99758062
 !UHF STATE 1.1 Dipole moment          -0.00251783     0.48983843    -0.00000000
 Dipole moment /Debye                  -0.00639926     1.24496357    -0.00000000

 Orbital energies for positive spin:

         1.1          2.1          3.1          4.1          5.1          6.1          7.1          8.1          9.1         10.1
    -15.663461   -15.662603   -11.309766    -1.384017    -1.225738    -0.703055    -0.658698    -0.651365    -0.625656    -0.516155

        11.1         12.1         13.1
     -0.494783     0.085815     0.223890

 Orbital energies for negative spin:

         1.1          2.1          3.1          4.1          5.1          6.1          7.1          8.1          9.1         10.1
    -15.610257   -15.609846   -11.346035    -1.288770    -1.034995    -0.645408    -0.556555    -0.552316    -0.541388     0.082631

        11.1         12.1         13.1
      0.121377     0.133502     0.279999

 HOMO     11.1    -0.494783 =     -13.4637eV
 LUMO    -10.1     0.082631 =       2.2485eV
 LUMO-HOMO         0.577414 =      15.7122eV

 EXPECTATION VALUE OF S**2:             2.65250342

 Occupation number threshold for canonical orbitals:  1.999000 (occupied),  0.001000 (virtual)

 Number of pseudo-canonical orbitals per symmetry:    4
 Number of active natural orbitals per symmetry:     12

 Natural orbitals saved to record    2200.1 (Orbital set 3)

 Orbital spaces for UNO-CAS (Min. occupation: 0.020  Max. occupation: 1.980):



 **********************************************************************************************************************************
 DATASETS  * FILE   NREC   LENGTH (MB)   RECORD NAMES
              1      19       19.35       500      610      700      900      950      970     1000      129      960     1100   
                                          VAR    BASINP    GEOM    SYMINP    ZMAT    AOBASIS   BASIS     P2S    ABASIS      S 
                                         1400     1410     1200     1210     1080     1600     1650     1700     2200   
                                           T        V       H0       H01     AOSYM     SMH    MOLCAS    OPER      UHF  

              2       5        0.49       700     1000      520     2200     5500   
                                         GEOM     BASIS   MCVARS     UHF     HINFO   

 PROGRAMS   *        TOTAL       UHF      UMP2       UHF       INT
 CPU TIMES  *         0.87      0.19      0.04      0.05      0.24
 REAL TIME  *         1.42 SEC
 DISK USED  *        73.28 MB      
 SF USED    *         1.39 MB      
 GA USED    *         0.00 MB       (max)       0.00 MB       (current)
 **********************************************************************************************************************************


1PROGRAM * UMP2 (Unrestricted open-shell)     Authors: H.-J. Werner, 2001


 Convergence thresholds:  THRVAR = 1.00D-12  THRDEN = 1.00D-08

 Number of core orbitals:           3 (   3 )
 Number of closed-shell orbitals:   6 (   6 )
 Number of active  orbitals:        2 (   2 )
 Number of external orbitals:      31 (  31 )

 Reading UHF information from record   2200.1

                               TOTAL       A-A         B-B         A-B
 Pair energies:            -0.31273586 -0.05456078 -0.03523741 -0.22293767
 Singles energies:          0.00000000  0.00000000  0.00000000

 Reference energy                    -146.672621773548
 Correlation energy                    -0.312735858584
 !UMP2 STATE 1.1 Energy              -146.985357632132


 **********************************************************************************************************************************
 DATASETS  * FILE   NREC   LENGTH (MB)   RECORD NAMES
              1      19       19.35       500      610      700      900      950      970     1000      129      960     1100   
                                          VAR    BASINP    GEOM    SYMINP    ZMAT    AOBASIS   BASIS     P2S    ABASIS      S 
                                         1400     1410     1200     1210     1080     1600     1650     1700     2200   
                                           T        V       H0       H01     AOSYM     SMH    MOLCAS    OPER      UHF  

              2       5        0.49       700     1000      520     2200     5500   
                                         GEOM     BASIS   MCVARS     UHF     HINFO   

 PROGRAMS   *        TOTAL      UMP2      UMP2       UHF       INT
 CPU TIMES  *         0.92      0.05      0.04      0.05      0.24
 REAL TIME  *         1.47 SEC
 DISK USED  *        73.28 MB      
 SF USED    *         1.39 MB      
 GA USED    *         0.00 MB       (max)       0.00 MB       (current)
 **********************************************************************************************************************************
 Starting task   3.  CPU=     0.56 sec, Elapsed=     0.56 sec
 Incrementing variable GY1              by  0.005292 ANG   to   -0.185205 ANG
 Incrementing variable GX1              by  0.005292 ANG   to    1.060260 ANG


 Recomputing integrals since geometry changed

1PROGRAM * SEWARD (Integral evaluation for generally contracted gaussian basis sets)     Author: Roland Lindh, 1990

 Geometry written to block  1 of record 700


 Point group  C1  



 ATOMIC COORDINATES

 NR  ATOM    CHARGE       X              Y              Z

   1  N       7.00    2.003600965   -0.349987416    0.000000000
   2  C       6.00   -0.000000000    0.840155072    0.000000000
   3  N       7.00   -1.993600965   -0.359987416    0.000000000

 Bond lengths in Bohr (Angstrom)

 1-2  2.330419698  2-3  2.326969446
     ( 1.233204996)     ( 1.231379201)

 Bond angles

  1-2-3  118.24178488

 NUCLEAR CHARGE:                   20
 NUMBER OF PRIMITIVE AOS:          81
 NUMBER OF SYMMETRY AOS:           78
 NUMBER OF CONTRACTIONS:           42   (  42A   )
 NUMBER OF CORE ORBITALS:           3   (   3A   )
 NUMBER OF VALENCE ORBITALS:       12   (  12A   )


 NUCLEAR REPULSION ENERGY   48.33026855

 EXTRA SYMMETRY OF AOS IN SYMMETRY 1:   1 1 1 1 1 2 1 1 2 1   1 2 1 2 1 1 1 1 1 2   1 1 2 1 1 2 1 2 1 1   1 1 1 2 1 1 2 1 1 2
                                        1 2

 Eigenvalues of metric

         1 0.518E-02 0.930E-02 0.282E-01 0.726E-01 0.728E-01 0.811E-01 0.100E+00 0.112E+00


 Contracted 2-electron integrals neglected if value below      1.0D-11
 AO integral compression algorithm  1   Integral accuracy      1.0D-11

     1.835 MB (compressed) written to integral file ( 40.7%)

     Node minimum: 0.524 MB, node maximum: 0.786 MB


 NUMBER OF SORTED TWO-ELECTRON INTEGRALS:     136353.     BUFFER LENGTH:  32768
 NUMBER OF SEGMENTS:   1  SEGMENT LENGTH:     136353      RECORD LENGTH: 524288

 Memory used in sort:       0.69 MW

 SORT1 READ      544483. AND WROTE       67622. INTEGRALS IN      1 RECORDS. CPU TIME:     0.01 SEC, REAL TIME:     0.01 SEC
 SORT2 READ      206107. AND WROTE      408156. INTEGRALS IN      9 RECORDS. CPU TIME:     0.00 SEC, REAL TIME:     0.01 SEC

 Node minimum:      135751.  Node maximum:      136353. integrals

 OPERATOR DM      FOR CENTER  0  COORDINATES:    0.000000    0.000000    0.000000
1PROGRAM * UHF-SCF       Authors: W. Meyer, H.-J. Werner


 NUMBER OF ELECTRONS:      11+    9-    SPACE SYMMETRY=1    SPIN SYMMETRY: Triplet 
 CONVERGENCE THRESHOLDS:    1.00E-07 (Density)    1.00E-08 (Energy)
 MAX. NUMBER OF ITERATIONS:     1000
 INTERPOLATION TYPE:            DIIS
 INTERPOLATION STEPS:              2 (START)      1 (STEP)
 LEVEL SHIFTS:                  0.20 (ALPHA)   0.20 (BETA) 

 Number of closed-shell orbitals:    9 (   9 )
 Number of open-shell orbitals:      2 (   2 )


 Molecular orbitals read from record     2200.2  Type=UHF/ALPHA (state 1.1)
 Molecular orbitals read from record     2200.2  Type=UHF/BETA (state 1.1)

 Molecular orbital dump at record        2200.1

 Initial alpha occupation  11
 Initial beta  occupation   9

 ITERATION    DDIFF          GRAD             ENERGY        2-EL.EN.            DIPOLE MOMENTS         DIIS
    1      0.000D+00      0.000D+00      -146.67470020    197.862479   -0.00061    0.48611   -0.00000    0
    2      0.250D-03      0.118D-03      -146.67471481    197.854195   -0.00008    0.48522   -0.00000    1
    3      0.164D-03      0.508D-04      -146.67472002    197.853491   -0.00011    0.48448   -0.00000    2
    4      0.810D-04      0.230D-04      -146.67472158    197.854046    0.00025    0.48410   -0.00000    3
    5      0.487D-04      0.130D-04      -146.67472219    197.854175    0.00014    0.48381   -0.00000    4
    6      0.272D-04      0.767D-05      -146.67472241    197.854246    0.00010    0.48358   -0.00000    5
    7      0.141D-04      0.391D-05      -146.67472248    197.854139   -0.00006    0.48336   -0.00000    6
    8      0.668D-05      0.164D-05      -146.67472249    197.854132   -0.00012    0.48325   -0.00000    7
    9      0.251D-05      0.626D-06      -146.67472250    197.854114   -0.00013    0.48323   -0.00000    8
   10      0.108D-05      0.275D-06      -146.67472250    197.854123   -0.00014    0.48323   -0.00000    8
   11      0.629D-06      0.156D-06      -146.67472250    197.854123   -0.00015    0.48323   -0.00000    9
   12      0.357D-06      0.886D-07      -146.67472250    197.854125   -0.00016    0.48323   -0.00000    9
   13      0.211D-06      0.476D-07      -146.67472250    197.854126   -0.00016    0.48323   -0.00000    9
   14      0.783D-07      0.201D-07      -146.67472250    197.854125   -0.00016    0.48324   -0.00000    8
   15      0.373D-07      0.968D-08      -146.67472250    197.854125   -0.00016    0.48324    0.00000    8
 
 Final alpha occupancy:  11
 Final beta  occupancy:   9

 !UHF STATE 1.1 Energy               -146.674722496317
 Nuclear energy                        48.33026855
 One-electron energy                 -293.93205371
 Two-electron energy                   98.92706266
 Virial quotient                       -0.99778143
 !UHF STATE 1.1 Dipole moment          -0.00016315     0.48323560     0.00000000
 Dipole moment /Debye                  -0.00041466     1.22818195     0.00000000

 Orbital energies for positive spin:

         1.1          2.1          3.1          4.1          5.1          6.1          7.1          8.1          9.1         10.1
    -15.664122   -15.663767   -11.310187    -1.381189    -1.225765    -0.703028    -0.657389    -0.650416    -0.625584    -0.516982

        11.1         12.1         13.1
     -0.496420     0.086458     0.223018

 Orbital energies for negative spin:

         1.1          2.1          3.1          4.1          5.1          6.1          7.1          8.1          9.1         10.1
    -15.611016   -15.610846   -11.346600    -1.286093    -1.034675    -0.645305    -0.555965    -0.552327    -0.540253     0.082141

        11.1         12.1         13.1
      0.121990     0.131867     0.279381

 HOMO     11.1    -0.496420 =     -13.5083eV
 LUMO    -10.1     0.082141 =       2.2352eV
 LUMO-HOMO         0.578561 =      15.7434eV

 EXPECTATION VALUE OF S**2:             2.65784760

 Occupation number threshold for canonical orbitals:  1.999000 (occupied),  0.001000 (virtual)

 Number of pseudo-canonical orbitals per symmetry:    4
 Number of active natural orbitals per symmetry:     12

 Natural orbitals saved to record    2200.1 (Orbital set 3)

 Orbital spaces for UNO-CAS (Min. occupation: 0.020  Max. occupation: 1.980):



 **********************************************************************************************************************************
 DATASETS  * FILE   NREC   LENGTH (MB)   RECORD NAMES
              1      19       19.35       500      610      700      900      950      970     1000      129      960     1100   
                                          VAR    BASINP    GEOM    SYMINP    ZMAT    AOBASIS   BASIS     P2S    ABASIS      S 
                                         1400     1410     1200     1210     1080     1600     1650     1700     2200   
                                           T        V       H0       H01     AOSYM     SMH    MOLCAS    OPER      UHF  

              2       5        0.49       700     1000      520     2200     5500   
                                         GEOM     BASIS   MCVARS     UHF     HINFO   

 PROGRAMS   *        TOTAL       UHF      UMP2       UHF       INT
 CPU TIMES  *         1.11      0.18      0.04      0.05      0.24
 REAL TIME  *         1.70 SEC
 DISK USED  *        73.35 MB      
 SF USED    *         1.39 MB      
 GA USED    *         0.00 MB       (max)       0.00 MB       (current)
 **********************************************************************************************************************************


1PROGRAM * UMP2 (Unrestricted open-shell)     Authors: H.-J. Werner, 2001


 Convergence thresholds:  THRVAR = 1.00D-12  THRDEN = 1.00D-08

 Number of core orbitals:           3 (   3 )
 Number of closed-shell orbitals:   6 (   6 )
 Number of active  orbitals:        2 (   2 )
 Number of external orbitals:      31 (  31 )

 Reading UHF information from record   2200.1

                               TOTAL       A-A         B-B         A-B
 Pair energies:            -0.31263874 -0.05455882 -0.03522396 -0.22285595
 Singles energies:          0.00000000  0.00000000  0.00000000

 Reference energy                    -146.674722496317
 Correlation energy                    -0.312638735395
 !UMP2 STATE 1.1 Energy              -146.987361231713


 **********************************************************************************************************************************
 DATASETS  * FILE   NREC   LENGTH (MB)   RECORD NAMES
              1      19       19.35       500      610      700      900      950      970     1000      129      960     1100   
                                          VAR    BASINP    GEOM    SYMINP    ZMAT    AOBASIS   BASIS     P2S    ABASIS      S 
                                         1400     1410     1200     1210     1080     1600     1650     1700     2200   
                                           T        V       H0       H01     AOSYM     SMH    MOLCAS    OPER      UHF  

              2       5        0.49       700     1000      520     2200     5500   
                                         GEOM     BASIS   MCVARS     UHF     HINFO   

 PROGRAMS   *        TOTAL      UMP2      UMP2       UHF       INT
 CPU TIMES  *         1.16      0.06      0.04      0.05      0.24
 REAL TIME  *         1.74 SEC
 DISK USED  *        73.35 MB      
 SF USED    *         1.39 MB      
 GA USED    *         0.00 MB       (max)       0.00 MB       (current)
 **********************************************************************************************************************************
 Starting task   4.  CPU=     0.84 sec, Elapsed=     0.83 sec
 Incrementing variable GY1              by -0.005292 ANG   to   -0.195789 ANG
 Incrementing variable GX1              by -0.005292 ANG   to    1.049676 ANG


 Recomputing integrals since geometry changed

1PROGRAM * SEWARD (Integral evaluation for generally contracted gaussian basis sets)     Author: Roland Lindh, 1990

 Geometry written to block  1 of record 700


 Point group  C1  



 ATOMIC COORDINATES

 NR  ATOM    CHARGE       X              Y              Z

   1  N       7.00    1.983600965   -0.369987416    0.000000000
   2  C       6.00   -0.000000000    0.840155072    0.000000000
   3  N       7.00   -1.993600965   -0.359987416    0.000000000

 Bond lengths in Bohr (Angstrom)

 1-2  2.323600144  2-3  2.326969446
     ( 1.229596244)     ( 1.231379201)

 Bond angles

  1-2-3  117.56590863

 NUCLEAR CHARGE:                   20
 NUMBER OF PRIMITIVE AOS:          81
 NUMBER OF SYMMETRY AOS:           78
 NUMBER OF CONTRACTIONS:           42   (  42A   )
 NUMBER OF CORE ORBITALS:           3   (   3A   )
 NUMBER OF VALENCE ORBITALS:       12   (  12A   )


 NUCLEAR REPULSION ENERGY   48.44480659

 EXTRA SYMMETRY OF AOS IN SYMMETRY 1:   1 1 1 1 1 2 1 1 2 1   1 2 1 2 1 1 1 1 1 2   1 1 2 1 1 2 1 2 1 1   1 1 1 2 1 1 2 1 1 2
                                        1 2

 Eigenvalues of metric

         1 0.517E-02 0.933E-02 0.280E-01 0.723E-01 0.727E-01 0.806E-01 0.101E+00 0.113E+00


 Contracted 2-electron integrals neglected if value below      1.0D-11
 AO integral compression algorithm  1   Integral accuracy      1.0D-11

     1.835 MB (compressed) written to integral file ( 40.8%)

     Node minimum: 0.524 MB, node maximum: 0.786 MB


 NUMBER OF SORTED TWO-ELECTRON INTEGRALS:     136353.     BUFFER LENGTH:  32768
 NUMBER OF SEGMENTS:   1  SEGMENT LENGTH:     136353      RECORD LENGTH: 524288

 Memory used in sort:       0.69 MW

 SORT1 READ      544483. AND WROTE       67621. INTEGRALS IN      1 RECORDS. CPU TIME:     0.00 SEC, REAL TIME:     0.01 SEC
 SORT2 READ      206103. AND WROTE      408156. INTEGRALS IN      9 RECORDS. CPU TIME:     0.01 SEC, REAL TIME:     0.01 SEC

 Node minimum:      135751.  Node maximum:      136353. integrals

 OPERATOR DM      FOR CENTER  0  COORDINATES:    0.000000    0.000000    0.000000
1PROGRAM * UHF-SCF       Authors: W. Meyer, H.-J. Werner


 NUMBER OF ELECTRONS:      11+    9-    SPACE SYMMETRY=1    SPIN SYMMETRY: Triplet 
 CONVERGENCE THRESHOLDS:    1.00E-07 (Density)    1.00E-08 (Energy)
 MAX. NUMBER OF ITERATIONS:     1000
 INTERPOLATION TYPE:            DIIS
 INTERPOLATION STEPS:              2 (START)      1 (STEP)
 LEVEL SHIFTS:                  0.20 (ALPHA)   0.20 (BETA) 

 Number of closed-shell orbitals:    9 (   9 )
 Number of open-shell orbitals:      2 (   2 )


 Molecular orbitals read from record     2200.2  Type=UHF/ALPHA (state 1.1)
 Molecular orbitals read from record     2200.2  Type=UHF/BETA (state 1.1)

 Molecular orbital dump at record        2200.1

 Initial alpha occupation  11
 Initial beta  occupation   9

 ITERATION    DDIFF          GRAD             ENERGY        2-EL.EN.            DIPOLE MOMENTS         DIIS
    1      0.000D+00      0.000D+00      -146.67249583    198.072311    0.00062    0.48851   -0.00000    0
    2      0.250D-03      0.118D-03      -146.67251044    198.080465    0.00011    0.48941   -0.00000    1
    3      0.164D-03      0.507D-04      -146.67251564    198.081158    0.00015    0.49016   -0.00000    2
    4      0.810D-04      0.230D-04      -146.67251720    198.080619   -0.00019    0.49054   -0.00000    3
    5      0.490D-04      0.130D-04      -146.67251781    198.080491   -0.00006    0.49083   -0.00000    4
    6      0.273D-04      0.766D-05      -146.67251803    198.080427   -0.00001    0.49106   -0.00000    5
    7      0.142D-04      0.390D-05      -146.67251810    198.080532    0.00015    0.49127   -0.00000    6
    8      0.665D-05      0.163D-05      -146.67251812    198.080540    0.00021    0.49138   -0.00000    7
    9      0.249D-05      0.628D-06      -146.67251812    198.080557    0.00022    0.49140   -0.00000    8
   10      0.108D-05      0.274D-06      -146.67251812    198.080547    0.00023    0.49140   -0.00000    8
   11      0.619D-06      0.153D-06      -146.67251812    198.080548    0.00024    0.49140   -0.00000    9
   12      0.347D-06      0.876D-07      -146.67251812    198.080546    0.00025    0.49140   -0.00000    9
   13      0.210D-06      0.476D-07      -146.67251812    198.080545    0.00025    0.49139   -0.00000    9
   14      0.798D-07      0.203D-07      -146.67251812    198.080545    0.00025    0.49139   -0.00000    8
   15      0.377D-07      0.972D-08      -146.67251812    198.080546    0.00025    0.49139   -0.00000    8
 
 Final alpha occupancy:  11
 Final beta  occupancy:   9

 !UHF STATE 1.1 Energy               -146.672518117661
 Nuclear energy                        48.44480659
 One-electron energy                 -294.15759746
 Two-electron energy                   99.04027276
 Virial quotient                       -0.99763015
 !UHF STATE 1.1 Dipole moment           0.00025222     0.49139401    -0.00000000
 Dipole moment /Debye                   0.00064103     1.24891719    -0.00000000

 Orbital energies for positive spin:

         1.1          2.1          3.1          4.1          5.1          6.1          7.1          8.1          9.1         10.1
    -15.663288   -15.662944   -11.309964    -1.383463    -1.224980    -0.703063    -0.658255    -0.651107    -0.625297    -0.516163

        11.1         12.1         13.1
     -0.494692     0.085196     0.223328

 Orbital energies for negative spin:

         1.1          2.1          3.1          4.1          5.1          6.1          7.1          8.1          9.1         10.1
    -15.610151   -15.609988   -11.346371    -1.288090    -1.033883    -0.645868    -0.556373    -0.552064    -0.541047     0.082966

        11.1         12.1         13.1
      0.120787     0.134080     0.279139

 HOMO     11.1    -0.494692 =     -13.4613eV
 LUMO    -10.1     0.082966 =       2.2576eV
 LUMO-HOMO         0.577658 =      15.7189eV

 EXPECTATION VALUE OF S**2:             2.65760870

 Occupation number threshold for canonical orbitals:  1.999000 (occupied),  0.001000 (virtual)

 Number of pseudo-canonical orbitals per symmetry:    4
 Number of active natural orbitals per symmetry:     12

 Natural orbitals saved to record    2200.1 (Orbital set 3)

 Orbital spaces for UNO-CAS (Min. occupation: 0.020  Max. occupation: 1.980):



 **********************************************************************************************************************************
 DATASETS  * FILE   NREC   LENGTH (MB)   RECORD NAMES
              1      19       19.35       500      610      700      900      950      970     1000      129      960     1100   
                                          VAR    BASINP    GEOM    SYMINP    ZMAT    AOBASIS   BASIS     P2S    ABASIS      S 
                                         1400     1410     1200     1210     1080     1600     1650     1700     2200   
                                           T        V       H0       H01     AOSYM     SMH    MOLCAS    OPER      UHF  

              2       5        0.49       700     1000      520     2200     5500   
                                         GEOM     BASIS   MCVARS     UHF     HINFO   

 PROGRAMS   *        TOTAL       UHF      UMP2       UHF       INT
 CPU TIMES  *         1.35      0.19      0.04      0.05      0.24
 REAL TIME  *         1.97 SEC
 DISK USED  *        73.35 MB      
 SF USED    *         1.39 MB      
 GA USED    *         0.00 MB       (max)       0.00 MB       (current)
 **********************************************************************************************************************************


1PROGRAM * UMP2 (Unrestricted open-shell)     Authors: H.-J. Werner, 2001


 Convergence thresholds:  THRVAR = 1.00D-12  THRDEN = 1.00D-08

 Number of core orbitals:           3 (   3 )
 Number of closed-shell orbitals:   6 (   6 )
 Number of active  orbitals:        2 (   2 )
 Number of external orbitals:      31 (  31 )

 Reading UHF information from record   2200.1

                               TOTAL       A-A         B-B         A-B
 Pair energies:            -0.31253574 -0.05455150 -0.03520317 -0.22278107
 Singles energies:          0.00000000  0.00000000  0.00000000

 Reference energy                    -146.672518117661
 Correlation energy                    -0.312535738928
 !UMP2 STATE 1.1 Energy              -146.985053856590


 **********************************************************************************************************************************
 DATASETS  * FILE   NREC   LENGTH (MB)   RECORD NAMES
              1      19       19.35       500      610      700      900      950      970     1000      129      960     1100   
                                          VAR    BASINP    GEOM    SYMINP    ZMAT    AOBASIS   BASIS     P2S    ABASIS      S 
                                         1400     1410     1200     1210     1080     1600     1650     1700     2200   
                                           T        V       H0       H01     AOSYM     SMH    MOLCAS    OPER      UHF  

              2       5        0.49       700     1000      520     2200     5500   
                                         GEOM     BASIS   MCVARS     UHF     HINFO   

 PROGRAMS   *        TOTAL      UMP2      UMP2       UHF       INT
 CPU TIMES  *         1.40      0.05      0.04      0.05      0.24
 REAL TIME  *         2.02 SEC
 DISK USED  *        73.35 MB      
 SF USED    *         1.39 MB      
 GA USED    *         0.00 MB       (max)       0.00 MB       (current)
 **********************************************************************************************************************************
 Starting task   5.  CPU=     1.11 sec, Elapsed=     1.11 sec
 Incrementing variable GY1              by  0.005292 ANG   to   -0.185205 ANG


 Recomputing integrals since geometry changed

1PROGRAM * SEWARD (Integral evaluation for generally contracted gaussian basis sets)     Author: Roland Lindh, 1990

 Geometry written to block  1 of record 700


 Point group  C1  



 ATOMIC COORDINATES

 NR  ATOM    CHARGE       X              Y              Z

   1  N       7.00    1.993600965   -0.349987416    0.000000000
   2  C       6.00   -0.000000000    0.840155072    0.000000000
   3  N       7.00   -1.993600965   -0.359987416    0.000000000

 Bond lengths in Bohr (Angstrom)

 1-2  2.321827718  2-3  2.326969446
     ( 1.228658316)     ( 1.231379201)

 Bond angles

  1-2-3  118.11575956

 NUCLEAR CHARGE:                   20
 NUMBER OF PRIMITIVE AOS:          81
 NUMBER OF SYMMETRY AOS:           78
 NUMBER OF CONTRACTIONS:           42   (  42A   )
 NUMBER OF CORE ORBITALS:           3   (   3A   )
 NUMBER OF VALENCE ORBITALS:       12   (  12A   )


 NUCLEAR REPULSION ENERGY   48.42770578

 EXTRA SYMMETRY OF AOS IN SYMMETRY 1:   1 1 1 1 1 2 1 1 2 1   1 2 1 2 1 1 1 1 1 2   1 1 2 1 1 2 1 2 1 1   1 1 1 2 1 1 2 1 1 2
                                        1 2

 Eigenvalues of metric

         1 0.517E-02 0.928E-02 0.280E-01 0.722E-01 0.724E-01 0.805E-01 0.100E+00 0.112E+00


 Contracted 2-electron integrals neglected if value below      1.0D-11
 AO integral compression algorithm  1   Integral accuracy      1.0D-11

     1.835 MB (compressed) written to integral file ( 40.7%)

     Node minimum: 0.524 MB, node maximum: 0.786 MB


 NUMBER OF SORTED TWO-ELECTRON INTEGRALS:     136353.     BUFFER LENGTH:  32768
 NUMBER OF SEGMENTS:   1  SEGMENT LENGTH:     136353      RECORD LENGTH: 524288

 Memory used in sort:       0.69 MW

 SORT1 READ      544483. AND WROTE       67518. INTEGRALS IN      1 RECORDS. CPU TIME:     0.00 SEC, REAL TIME:     0.01 SEC
 SORT2 READ      205875. AND WROTE      408156. INTEGRALS IN      9 RECORDS. CPU TIME:     0.01 SEC, REAL TIME:     0.00 SEC

 Node minimum:      135751.  Node maximum:      136353. integrals

 OPERATOR DM      FOR CENTER  0  COORDINATES:    0.000000    0.000000    0.000000
1PROGRAM * UHF-SCF       Authors: W. Meyer, H.-J. Werner


 NUMBER OF ELECTRONS:      11+    9-    SPACE SYMMETRY=1    SPIN SYMMETRY: Triplet 
 CONVERGENCE THRESHOLDS:    1.00E-07 (Density)    1.00E-08 (Energy)
 MAX. NUMBER OF ITERATIONS:     1000
 INTERPOLATION TYPE:            DIIS
 INTERPOLATION STEPS:              2 (START)      1 (STEP)
 LEVEL SHIFTS:                  0.20 (ALPHA)   0.20 (BETA) 

 Number of closed-shell orbitals:    9 (   9 )
 Number of open-shell orbitals:      2 (   2 )


 Molecular orbitals read from record     2200.2  Type=UHF/ALPHA (state 1.1)
 Molecular orbitals read from record     2200.2  Type=UHF/BETA (state 1.1)

 Molecular orbital dump at record        2200.1

 Initial alpha occupation  11
 Initial beta  occupation   9

 ITERATION    DDIFF          GRAD             ENERGY        2-EL.EN.            DIPOLE MOMENTS         DIIS
    1      0.000D+00      0.000D+00      -146.67373369    198.028878   -0.00013    0.48650   -0.00000    0
    2      0.224D-03      0.908D-04      -146.67374267    198.040126   -0.00106    0.48616   -0.00000    1
    3      0.128D-03      0.386D-04      -146.67374572    198.041411   -0.00112    0.48629   -0.00000    2
    4      0.609D-04      0.198D-04      -146.67374690    198.040667   -0.00173    0.48632   -0.00000    3
    5      0.427D-04      0.107D-04      -146.67374743    198.040506   -0.00212    0.48618   -0.00000    4
    6      0.293D-04      0.575D-05      -146.67374758    198.040323   -0.00255    0.48595   -0.00000    5
    7      0.104D-04      0.234D-05      -146.67374761    198.040315   -0.00267    0.48582   -0.00000    6
    8      0.348D-05      0.113D-05      -146.67374761    198.040289   -0.00272    0.48578   -0.00000    7
    9      0.172D-05      0.603D-06      -146.67374761    198.040280   -0.00274    0.48575   -0.00000    8
   10      0.106D-05      0.331D-06      -146.67374761    198.040290   -0.00275    0.48575   -0.00000    9
   11      0.650D-06      0.174D-06      -146.67374761    198.040290   -0.00276    0.48575   -0.00000    9
   12      0.275D-06      0.713D-07      -146.67374761    198.040292   -0.00276    0.48575   -0.00000    9
   13      0.100D-06      0.300D-07      -146.67374761    198.040291   -0.00276    0.48575   -0.00000    9
   14      0.368D-07      0.125D-07      -146.67374761    198.040292   -0.00276    0.48575    0.00000    8
   15      0.215D-07      0.644D-08      -146.67374761    198.040291   -0.00276    0.48575    0.00000    8
 
 Final alpha occupancy:  11
 Final beta  occupancy:   9

 !UHF STATE 1.1 Energy               -146.673747612316
 Nuclear energy                        48.42770578
 One-electron energy                 -294.12159910
 Two-electron energy                   99.02014570
 Virial quotient                       -0.99765727
 !UHF STATE 1.1 Dipole moment          -0.00275917     0.48574981     0.00000000
 Dipole moment /Debye                  -0.00701266     1.23457199     0.00000000

 Orbital energies for positive spin:

         1.1          2.1          3.1          4.1          5.1          6.1          7.1          8.1          9.1         10.1
    -15.663709   -15.663187   -11.309879    -1.382871    -1.226133    -0.703039    -0.658260    -0.651019    -0.625802    -0.516565

        11.1         12.1         13.1
     -0.495652     0.086449     0.223732

 Orbital energies for negative spin:

         1.1          2.1          3.1          4.1          5.1          6.1          7.1          8.1          9.1         10.1
    -15.610610   -15.610359   -11.346153    -1.287760    -1.035398    -0.645127    -0.556347    -0.552453    -0.540986     0.082216

        11.1         12.1         13.1
      0.121983     0.132390     0.280120

 HOMO     11.1    -0.495652 =     -13.4874eV
 LUMO    -10.1     0.082216 =       2.2372eV
 LUMO-HOMO         0.577869 =      15.7246eV

 EXPECTATION VALUE OF S**2:             2.65266715

 Occupation number threshold for canonical orbitals:  1.999000 (occupied),  0.001000 (virtual)

 Number of pseudo-canonical orbitals per symmetry:    4
 Number of active natural orbitals per symmetry:     12

 Natural orbitals saved to record    2200.1 (Orbital set 3)

 Orbital spaces for UNO-CAS (Min. occupation: 0.020  Max. occupation: 1.980):



 **********************************************************************************************************************************
 DATASETS  * FILE   NREC   LENGTH (MB)   RECORD NAMES
              1      19       19.35       500      610      700      900      950      970     1000      129      960     1100   
                                          VAR    BASINP    GEOM    SYMINP    ZMAT    AOBASIS   BASIS     P2S    ABASIS      S 
                                         1400     1410     1200     1210     1080     1600     1650     1700     2200   
                                           T        V       H0       H01     AOSYM     SMH    MOLCAS    OPER      UHF  

              2       5        0.49       700     1000      520     2200     5500   
                                         GEOM     BASIS   MCVARS     UHF     HINFO   

 PROGRAMS   *        TOTAL       UHF      UMP2       UHF       INT
 CPU TIMES  *         1.60      0.20      0.04      0.05      0.24
 REAL TIME  *         2.25 SEC
 DISK USED  *        73.35 MB      
 SF USED    *         1.39 MB      
 GA USED    *         0.00 MB       (max)       0.00 MB       (current)
 **********************************************************************************************************************************


1PROGRAM * UMP2 (Unrestricted open-shell)     Authors: H.-J. Werner, 2001


 Convergence thresholds:  THRVAR = 1.00D-12  THRDEN = 1.00D-08

 Number of core orbitals:           3 (   3 )
 Number of closed-shell orbitals:   6 (   6 )
 Number of active  orbitals:        2 (   2 )
 Number of external orbitals:      31 (  31 )

 Reading UHF information from record   2200.1

                               TOTAL       A-A         B-B         A-B
 Pair energies:            -0.31278489 -0.05456435 -0.03524765 -0.22297289
 Singles energies:          0.00000000  0.00000000  0.00000000

 Reference energy                    -146.673747612316
 Correlation energy                    -0.312784892675
 !UMP2 STATE 1.1 Energy              -146.986532504991


 **********************************************************************************************************************************
 DATASETS  * FILE   NREC   LENGTH (MB)   RECORD NAMES
              1      19       19.35       500      610      700      900      950      970     1000      129      960     1100   
                                          VAR    BASINP    GEOM    SYMINP    ZMAT    AOBASIS   BASIS     P2S    ABASIS      S 
                                         1400     1410     1200     1210     1080     1600     1650     1700     2200   
                                           T        V       H0       H01     AOSYM     SMH    MOLCAS    OPER      UHF  

              2       5        0.49       700     1000      520     2200     5500   
                                         GEOM     BASIS   MCVARS     UHF     HINFO   

 PROGRAMS   *        TOTAL      UMP2      UMP2       UHF       INT
 CPU TIMES  *         1.65      0.05      0.04      0.05      0.24
 REAL TIME  *         2.29 SEC
 DISK USED  *        73.35 MB      
 SF USED    *         1.39 MB      
 GA USED    *         0.00 MB       (max)       0.00 MB       (current)
 **********************************************************************************************************************************
    5 tasks completed, CPU=1s Elapsed=1s
 Starting task   6.  CPU=     1.39 sec, Elapsed=     1.39 sec
 Incrementing variable GY1              by -0.005292 ANG   to   -0.195789 ANG


 Recomputing integrals since geometry changed

1PROGRAM * SEWARD (Integral evaluation for generally contracted gaussian basis sets)     Author: Roland Lindh, 1990

 Geometry written to block  1 of record 700


 Point group  C1  



 ATOMIC COORDINATES

 NR  ATOM    CHARGE       X              Y              Z

   1  N       7.00    1.993600965   -0.369987416    0.000000000
   2  C       6.00   -0.000000000    0.840155072    0.000000000
   3  N       7.00   -1.993600965   -0.359987416    0.000000000

 Bond lengths in Bohr (Angstrom)

 1-2  2.332142717  2-3  2.326969446
     ( 1.234116778)     ( 1.231379201)

 Bond angles

  1-2-3  117.69385942

 NUCLEAR CHARGE:                   20
 NUMBER OF PRIMITIVE AOS:          81
 NUMBER OF SYMMETRY AOS:           78
 NUMBER OF CONTRACTIONS:           42   (  42A   )
 NUMBER OF CORE ORBITALS:           3   (   3A   )
 NUMBER OF VALENCE ORBITALS:       12   (  12A   )


 NUCLEAR REPULSION ENERGY   48.34769780

 EXTRA SYMMETRY OF AOS IN SYMMETRY 1:   1 1 1 1 1 2 1 1 2 1   1 2 1 2 1 1 1 1 1 2   1 1 2 1 1 2 1 2 1 1   1 1 1 2 1 1 2 1 1 2
                                        1 2

 Eigenvalues of metric

         1 0.518E-02 0.936E-02 0.282E-01 0.726E-01 0.732E-01 0.812E-01 0.101E+00 0.113E+00


 Contracted 2-electron integrals neglected if value below      1.0D-11
 AO integral compression algorithm  1   Integral accuracy      1.0D-11

     1.835 MB (compressed) written to integral file ( 40.7%)

     Node minimum: 0.524 MB, node maximum: 0.786 MB


 NUMBER OF SORTED TWO-ELECTRON INTEGRALS:     136353.     BUFFER LENGTH:  32768
 NUMBER OF SEGMENTS:   1  SEGMENT LENGTH:     136353      RECORD LENGTH: 524288

 Memory used in sort:       0.69 MW

 SORT1 READ      544483. AND WROTE       67518. INTEGRALS IN      1 RECORDS. CPU TIME:     0.01 SEC, REAL TIME:     0.01 SEC
 SORT2 READ      205875. AND WROTE      408156. INTEGRALS IN      6 RECORDS. CPU TIME:     0.00 SEC, REAL TIME:     0.00 SEC

 Node minimum:      135751.  Node maximum:      136353. integrals

 OPERATOR DM      FOR CENTER  0  COORDINATES:    0.000000    0.000000    0.000000
1PROGRAM * UHF-SCF       Authors: W. Meyer, H.-J. Werner


 NUMBER OF ELECTRONS:      11+    9-    SPACE SYMMETRY=1    SPIN SYMMETRY: Triplet 
 CONVERGENCE THRESHOLDS:    1.00E-07 (Density)    1.00E-08 (Energy)
 MAX. NUMBER OF ITERATIONS:     1000
 INTERPOLATION TYPE:            DIIS
 INTERPOLATION STEPS:              2 (START)      1 (STEP)
 LEVEL SHIFTS:                  0.20 (ALPHA)   0.20 (BETA) 

 Number of closed-shell orbitals:    9 (   9 )
 Number of open-shell orbitals:      2 (   2 )


 Molecular orbitals read from record     2200.2  Type=UHF/ALPHA (state 1.1)
 Molecular orbitals read from record     2200.2  Type=UHF/BETA (state 1.1)

 Molecular orbital dump at record        2200.1

 Initial alpha occupation  11
 Initial beta  occupation   9

 ITERATION    DDIFF          GRAD             ENERGY        2-EL.EN.            DIPOLE MOMENTS         DIIS
    1      0.000D+00      0.000D+00      -146.67348867    197.906304    0.00013    0.48811   -0.00000    0
    2      0.224D-03      0.905D-04      -146.67349762    197.895103    0.00106    0.48844   -0.00000    1
    3      0.128D-03      0.386D-04      -146.67350068    197.893830    0.00112    0.48831   -0.00000    2
    4      0.609D-04      0.197D-04      -146.67350185    197.894589    0.00174    0.48828   -0.00000    3
    5      0.424D-04      0.107D-04      -146.67350237    197.894754    0.00212    0.48842   -0.00000    4
    6      0.290D-04      0.571D-05      -146.67350253    197.894939    0.00254    0.48864   -0.00000    5
    7      0.104D-04      0.235D-05      -146.67350255    197.894946    0.00266    0.48877    0.00000    6
    8      0.359D-05      0.114D-05      -146.67350256    197.894974    0.00271    0.48882    0.00000    7
    9      0.179D-05      0.592D-06      -146.67350256    197.894980    0.00273    0.48884   -0.00000    8
   10      0.101D-05      0.314D-06      -146.67350256    197.894971    0.00274    0.48884    0.00000    9
   11      0.603D-06      0.164D-06      -146.67350256    197.894971    0.00275    0.48885   -0.00000    9
   12      0.254D-06      0.679D-07      -146.67350256    197.894969    0.00275    0.48885   -0.00000    9
   13      0.975D-07      0.295D-07      -146.67350256    197.894969    0.00275    0.48885   -0.00000    9
   14      0.378D-07      0.126D-07      -146.67350256    197.894969    0.00275    0.48885   -0.00000    8
   15      0.220D-07      0.653D-08      -146.67350256    197.894969    0.00275    0.48884   -0.00000    8
 
 Final alpha occupancy:  11
 Final beta  occupancy:   9

 !UHF STATE 1.1 Energy               -146.673502557378
 Nuclear energy                        48.34769780
 One-electron energy                 -293.96868493
 Two-electron energy                   98.94748458
 Virial quotient                       -0.99775380
 !UHF STATE 1.1 Dipole moment           0.00275352     0.48884498    -0.00000000
 Dipole moment /Debye                   0.00699830     1.24243864    -0.00000000

 Orbital energies for positive spin:

         1.1          2.1          3.1          4.1          5.1          6.1          7.1          8.1          9.1         10.1
    -15.663872   -15.663352   -11.310267    -1.381779    -1.224625    -0.703051    -0.657386    -0.650504    -0.625082    -0.516583

        11.1         12.1         13.1
     -0.495471     0.085214     0.222627

 Orbital energies for negative spin:

         1.1          2.1          3.1          4.1          5.1          6.1          7.1          8.1          9.1         10.1
    -15.610643   -15.610393   -11.346809    -1.286425    -1.033176    -0.646037    -0.556000    -0.551941    -0.540318     0.082884

        11.1         12.1         13.1
      0.120805     0.133539     0.278416

 HOMO     11.1    -0.495471 =     -13.4825eV
 LUMO    -10.1     0.082884 =       2.2554eV
 LUMO-HOMO         0.578355 =      15.7378eV

 EXPECTATION VALUE OF S**2:             2.66270665

 Occupation number threshold for canonical orbitals:  1.999000 (occupied),  0.001000 (virtual)

 Number of pseudo-canonical orbitals per symmetry:    4
 Number of active natural orbitals per symmetry:     12

 Natural orbitals saved to record    2200.1 (Orbital set 3)

 Orbital spaces for UNO-CAS (Min. occupation: 0.020  Max. occupation: 1.980):



 **********************************************************************************************************************************
 DATASETS  * FILE   NREC   LENGTH (MB)   RECORD NAMES
              1      19       19.35       500      610      700      900      950      970     1000      129      960     1100   
                                          VAR    BASINP    GEOM    SYMINP    ZMAT    AOBASIS   BASIS     P2S    ABASIS      S 
                                         1400     1410     1200     1210     1080     1600     1650     1700     2200   
                                           T        V       H0       H01     AOSYM     SMH    MOLCAS    OPER      UHF  

              2       5        0.49       700     1000      520     2200     5500   
                                         GEOM     BASIS   MCVARS     UHF     HINFO   

 PROGRAMS   *        TOTAL       UHF      UMP2       UHF       INT
 CPU TIMES  *         1.84      0.19      0.04      0.05      0.24
 REAL TIME  *         2.51 SEC
 DISK USED  *        73.35 MB      
 SF USED    *         1.39 MB      
 GA USED    *         0.00 MB       (max)       0.00 MB       (current)
 **********************************************************************************************************************************


1PROGRAM * UMP2 (Unrestricted open-shell)     Authors: H.-J. Werner, 2001


 Convergence thresholds:  THRVAR = 1.00D-12  THRDEN = 1.00D-08

 Number of core orbitals:           3 (   3 )
 Number of closed-shell orbitals:   6 (   6 )
 Number of active  orbitals:        2 (   2 )
 Number of external orbitals:      31 (  31 )

 Reading UHF information from record   2200.1

                               TOTAL       A-A         B-B         A-B
 Pair energies:            -0.31239326 -0.05454601 -0.03517988 -0.22266738
 Singles energies:          0.00000000  0.00000000  0.00000000

 Reference energy                    -146.673502557378
 Correlation energy                    -0.312393264491
 !UMP2 STATE 1.1 Energy              -146.985895821868


 **********************************************************************************************************************************
 DATASETS  * FILE   NREC   LENGTH (MB)   RECORD NAMES
              1      19       19.35       500      610      700      900      950      970     1000      129      960     1100   
                                          VAR    BASINP    GEOM    SYMINP    ZMAT    AOBASIS   BASIS     P2S    ABASIS      S 
                                         1400     1410     1200     1210     1080     1600     1650     1700     2200   
                                           T        V       H0       H01     AOSYM     SMH    MOLCAS    OPER      UHF  

              2       5        0.49       700     1000      520     2200     5500   
                                         GEOM     BASIS   MCVARS     UHF     HINFO   

 PROGRAMS   *        TOTAL      UMP2      UMP2       UHF       INT
 CPU TIMES  *         1.88      0.04      0.04      0.05      0.24
 REAL TIME  *         2.56 SEC
 DISK USED  *        73.35 MB      
 SF USED    *         1.39 MB      
 GA USED    *         0.00 MB       (max)       0.00 MB       (current)
 **********************************************************************************************************************************
 Starting task   7.  CPU=     1.65 sec, Elapsed=     1.65 sec
 Incrementing variable GZ1              by  0.005292 ANG   to    0.005292 ANG


 Recomputing integrals since geometry changed

1PROGRAM * SEWARD (Integral evaluation for generally contracted gaussian basis sets)     Author: Roland Lindh, 1990

 Geometry written to block  1 of record 700


 Point group  C1  



 ATOMIC COORDINATES

 NR  ATOM    CHARGE       X              Y              Z

   1  N       7.00    1.993600965   -0.359987416    0.010000000
   2  C       6.00   -0.000000000    0.840155072    0.000000000
   3  N       7.00   -1.993600965   -0.359987416    0.000000000

 Bond lengths in Bohr (Angstrom)

 1-2  2.326990933  2-3  2.326969446
     ( 1.231390572)     ( 1.231379201)

 Bond angles

  1-2-3  117.90406177

 NUCLEAR CHARGE:                   20
 NUMBER OF PRIMITIVE AOS:          81
 NUMBER OF SYMMETRY AOS:           78
 NUMBER OF CONTRACTIONS:           42   (  42A   )
 NUMBER OF CORE ORBITALS:           3   (   3A   )
 NUMBER OF VALENCE ORBITALS:       12   (  12A   )


 NUCLEAR REPULSION ENERGY   48.38756879


 Eigenvalues of metric

         1 0.518E-02 0.932E-02 0.281E-01 0.725E-01 0.727E-01 0.808E-01 0.100E+00 0.113E+00


 Contracted 2-electron integrals neglected if value below      1.0D-11
 AO integral compression algorithm  1   Integral accuracy      1.0D-11

     2.359 MB (compressed) written to integral file ( 55.0%)

     Node minimum: 0.786 MB, node maximum: 0.786 MB


 NUMBER OF SORTED TWO-ELECTRON INTEGRALS:     136353.     BUFFER LENGTH:  32768
 NUMBER OF SEGMENTS:   1  SEGMENT LENGTH:     136353      RECORD LENGTH: 524288

 Memory used in sort:       0.69 MW

 SORT1 READ      544483. AND WROTE      106957. INTEGRALS IN      1 RECORDS. CPU TIME:     0.01 SEC, REAL TIME:     0.01 SEC
 SORT2 READ      324973. AND WROTE      408156. INTEGRALS IN      9 RECORDS. CPU TIME:     0.01 SEC, REAL TIME:     0.01 SEC

 Node minimum:      135751.  Node maximum:      136353. integrals

 OPERATOR DM      FOR CENTER  0  COORDINATES:    0.000000    0.000000    0.000000
1PROGRAM * UHF-SCF       Authors: W. Meyer, H.-J. Werner


 NUMBER OF ELECTRONS:      11+    9-    SPACE SYMMETRY=1    SPIN SYMMETRY: Triplet 
 CONVERGENCE THRESHOLDS:    1.00E-07 (Density)    1.00E-08 (Energy)
 MAX. NUMBER OF ITERATIONS:     1000
 INTERPOLATION TYPE:            DIIS
 INTERPOLATION STEPS:              2 (START)      1 (STEP)
 LEVEL SHIFTS:                  0.20 (ALPHA)   0.20 (BETA) 

 Number of closed-shell orbitals:    9 (   9 )
 Number of open-shell orbitals:      2 (   2 )


 Molecular orbitals read from record     2200.2  Type=UHF/ALPHA (state 1.1)
 Molecular orbitals read from record     2200.2  Type=UHF/BETA (state 1.1)

 Molecular orbital dump at record        2200.1

 Initial alpha occupation  11
 Initial beta  occupation   9

 ITERATION    DDIFF          GRAD             ENERGY        2-EL.EN.            DIPOLE MOMENTS         DIIS
    1      0.000D+00      0.000D+00      -146.67362126    197.967429    0.00000    0.48731   -0.00075    0
    2      0.166D-03      0.825D-04      -146.67362869    197.967386    0.00001    0.48731   -0.00120    1
    3      0.116D-03      0.369D-04      -146.67363124    197.967385    0.00001    0.48730   -0.00136    2
    4      0.470D-04      0.149D-04      -146.67363179    197.967385    0.00001    0.48730   -0.00147    3
    5      0.227D-04      0.737D-05      -146.67363196    197.967388    0.00001    0.48730   -0.00166    4
    6      0.111D-04      0.367D-05      -146.67363202    197.967387    0.00001    0.48730   -0.00185    5
    7      0.586D-05      0.163D-05      -146.67363203    197.967388    0.00001    0.48730   -0.00198    6
    8      0.167D-05      0.525D-06      -146.67363203    197.967388    0.00001    0.48730   -0.00201    7
    9      0.620D-06      0.249D-06      -146.67363203    197.967387    0.00001    0.48730   -0.00202    8
   10      0.353D-06      0.128D-06      -146.67363203    197.967388    0.00001    0.48730   -0.00203    8
   11      0.176D-06      0.517D-07      -146.67363203    197.967387    0.00001    0.48730   -0.00203    8
   12      0.607D-07      0.209D-07      -146.67363203    197.967387    0.00001    0.48730   -0.00203    8
[...]
                               TOTAL       A-A         B-B         A-B
 Pair energies:            -0.31258583 -0.05455507 -0.03521333 -0.22281743
 Singles energies:          0.00000000  0.00000000  0.00000000

 Reference energy                    -146.673630037652
 Correlation energy                    -0.312585825952
 !UMP2 STATE 1.1 Energy              -146.986215863604


 **********************************************************************************************************************************
 DATASETS  * FILE   NREC   LENGTH (MB)   RECORD NAMES
              1      19       19.35       500      610      700      900      950      970     1000      129      960     1100   
                                          VAR    BASINP    GEOM    SYMINP    ZMAT    AOBASIS   BASIS     P2S    ABASIS      S 
                                         1400     1410     1200     1210     1080     1600     1650     1700     2200   
                                           T        V       H0       H01     AOSYM     SMH    MOLCAS    OPER      UHF  

              2       5        0.49       700     1000      520     2200     5500   
                                         GEOM     BASIS   MCVARS     UHF     HINFO   

 PROGRAMS   *        TOTAL      UMP2      UMP2       UHF       INT
 CPU TIMES  *         6.94      0.05      0.04      0.05      0.24
 REAL TIME  *         8.71 SEC
 DISK USED  *        73.90 MB      
 SF USED    *         1.39 MB      
 GA USED    *         0.00 MB       (max)       0.00 MB       (current)
 **********************************************************************************************************************************

 Numerical UMP2 hessian completed. CPU-time:     7.42 sec, Elapsed:     7.80 sec

 UMP2 hessian saved to record  5300.2

 FREQUENCIES * CALCULATION OF HARMONIC VIBRATIONAL SPECTRA FOR UMP2


 Permanent Dipole Moment [debye]
   1-  3    0.000000    0.000000    0.000000

 Dipole Moment Norm    0.0000000 [debye]

 Dipole Moment Derivatives [debye/ang]
                   1             2             3             4             5             6             7             8
         1     0.0000000     0.0000000     0.0000000     0.0000000     0.0000000     0.0000000     0.0000000     0.0000000
         2     0.0000000     0.0000000     0.0000000     0.0000000     0.0000000     0.0000000     0.0000000     0.0000000
         3     0.0000000     0.0000000     0.0000000     0.0000000     0.0000000     0.0000000     0.0000000     0.0000000
                   9
         1     0.0000000
         2     0.0000000
         3     0.0000000

 Force Constants (Second Derivatives of the Energy) in [a.u.]
                             GX1         GY1         GZ1         GX2         GY2     
           GX1           0.5085681
           GY1          -0.1880912   0.0902483
           GZ1           0.0000000   0.0000000  -0.0045205
           GX2          -0.1572649   0.0764344   0.0000000   0.3145298
           GY2           0.2936412  -0.1707550   0.0000000   0.0000000   0.3415101
           GZ2           0.0000000   0.0000000  -0.0281194   0.0000000   0.0000000
           GX3          -0.3513031   0.1070829   0.0000000  -0.1572649  -0.2936412
           GY3          -0.1070829   0.0805067   0.0000000  -0.0764344  -0.1707550
           GZ3           0.0000000   0.0000000   0.0326429   0.0000000   0.0000000
                             GZ2         GX3         GY3         GZ3     
           GZ2           0.0562448
           GX3           0.0000000   0.5085681
           GY3           0.0000000   0.1880912   0.0902483
           GZ3          -0.0281194   0.0000000   0.0000000  -0.0045205


 Atomic Masses
   1-  3   14.006700   12.011000   14.006700

 Mass weighted Second Derivative Matrix
                             GX1         GY1         GZ1         GX2         GY2     
           GX1           0.0363089
           GY1          -0.0134287   0.0064432
           GZ1           0.0000000   0.0000000  -0.0003227
           GX2          -0.0121248   0.0058929   0.0000000   0.0261868
           GY2           0.0226391  -0.0131649   0.0000000   0.0000000   0.0284331
           GZ2           0.0000000   0.0000000  -0.0021679   0.0000000   0.0000000
           GX3          -0.0250811   0.0076451   0.0000000  -0.0121248  -0.0226391
           GY3          -0.0076451   0.0057477   0.0000000  -0.0058929  -0.0131649
           GZ3           0.0000000   0.0000000   0.0023305   0.0000000   0.0000000
                             GZ2         GX3         GY3         GZ3     
           GZ2           0.0046828
           GX3           0.0000000   0.0363089
           GY3           0.0000000   0.0134287   0.0064432
           GZ3          -0.0021679   0.0000000   0.0000000  -0.0003227


 Mass Weighted 2nd Derivative Matrix Eigenvalues
   1-  9   -0.002653   -0.001955   -0.000000    0.000000    0.000036    0.006690    0.011296    0.040029    0.090718

 Mass Weighted 2nd Derivative Matrix Eigenvectors
                   1             2             3             4             5             6             7             8
         1    -0.0000000     0.1750928     0.0025667    -0.0000000     0.5726183    -0.0000000    -0.4296830    -0.3760994
         2    -0.0000000     0.6785694     0.5928884    -0.0000000    -0.0915428    -0.0000000    -0.3047176     0.1765320
         3     0.7071068     0.0000000     0.0000000     0.5915767     0.0000000    -0.3873461     0.0000000     0.0000000
         4    -0.0000000    -0.1333125     0.0000000    -0.0000000     0.5722380    -0.0000000     0.0000000     0.8091795
         5     0.0000000    -0.0000000     0.5449345    -0.0000000    -0.0000000    -0.0000000     0.6671127    -0.0000000
         6    -0.0000000    -0.0000000     0.0000000     0.5477901     0.0000000     0.8366158    -0.0000000    -0.0000000
         7    -0.0000000     0.1750928    -0.0025667    -0.0000000     0.5726183    -0.0000000     0.4296830    -0.3760994
         8     0.0000000    -0.6785694     0.5928884    -0.0000000     0.0915428    -0.0000000    -0.3047176    -0.1765320
         9    -0.7071068    -0.0000000     0.0000000     0.5915767     0.0000000    -0.3873461     0.0000000     0.0000000
                   9
         1     0.5615745
         2    -0.2358614
         3     0.0000000
         4     0.0000000
         5     0.5079439
         6    -0.0000000
         7    -0.5615745
         8    -0.2358614
         9     0.0000000

 Imaginary Vibration  Wavenumber
        Nr             [1/cm] 
        1              264.78
        2              227.26
        3                2.96

   Low Vibration      Wavenumber
        Nr             [1/cm] 
        1                2.82
        2               30.71

     Vibration        Wavenumber
        Nr             [1/cm] 
        1              420.46
        2              546.35
        3             1028.46
        4             1548.27

 FREQUENCIES * CALCULATION OF NORMAL MODES FOR UMP2


 Atomic Coordinates

  Nr  Atom  Charge       X              Y              Z

   1   N     7.00    1.993600965   -0.359987416    0.000000000
   2   C     6.00   -0.000000000    0.840155072    0.000000000
   3   N     7.00   -1.993600965   -0.359987416    0.000000000

 Frequencies dumped to record   5400.2

 Gradient norm at reference geometry: 0.14158D+00

 ?WARNING: GRADIENT NORM NOT ZERO!

 Normal Modes

                              1 B1        2 A1        3 B2        4 Err
 Wavenumbers [cm-1]          420.46      546.35     1028.46     1548.27
 Intensities [km/mol]          0.00        0.00        0.00        0.00
 Intensities [relative]        0.00        0.00        0.00        0.00
           GX1             -0.00000    -0.11481    -0.10049     0.15005
           GY1             -0.00000    -0.08142     0.04717    -0.06302
           GZ1             -0.10350     0.00000     0.00000     0.00000
           GX2             -0.00000     0.00000     0.23348     0.00000
           GY2             -0.00000     0.19249    -0.00000     0.14656
           GZ2              0.24140    -0.00000    -0.00000    -0.00000
           GX3             -0.00000     0.11481    -0.10049    -0.15005
           GY3             -0.00000    -0.08142    -0.04717    -0.06302
           GZ3             -0.10350     0.00000     0.00000     0.00000


 Normal Modes of imaginary frequencies

                                  1           2           3
 Wavenumbers [cm-1]          264.78      227.26        2.96
 Intensities [km/mol]          0.00        0.00        0.00
 Intensities [relative]        0.00        0.00        0.00
           GX1             -0.00000     0.04678     0.00069
           GY1             -0.00000     0.18131     0.15842
           GZ1              0.18894     0.00000     0.00000
           GX2             -0.00000    -0.03847     0.00000
           GY2              0.00000    -0.00000     0.15724
           GZ2             -0.00000    -0.00000     0.00000
           GX3             -0.00000     0.04678    -0.00069
           GY3              0.00000    -0.18131     0.15842
           GZ3             -0.18894    -0.00000     0.00000


 Normal Modes of low/zero frequencies

                                  1           2
 Wavenumbers [cm-1]            2.82       30.71
 Intensities [km/mol]          0.00        0.00
 Intensities [relative]        0.00        0.00
           GX1             -0.00000     0.15300
           GY1             -0.00000    -0.02446
           GZ1              0.15807     0.00000
           GX2             -0.00000     0.16512
           GY2             -0.00000    -0.00000
           GZ2              0.15806     0.00000
           GX3             -0.00000     0.15300
           GY3             -0.00000     0.02446
           GZ3              0.15807     0.00000


 Zero point energy:  0.00807279 [H]     1771.77 [1/CM]       21.20 [KJ/MOL]

 Recomputing wavefunction at initial geometry


 Recomputing integrals since geometry changed

1PROGRAM * SEWARD (Integral evaluation for generally contracted gaussian basis sets)     Author: Roland Lindh, 1990

 Geometry written to block  1 of record 700


 Point group  C1  



 ATOMIC COORDINATES

 NR  ATOM    CHARGE       X              Y              Z

   1  N       7.00    1.993600965   -0.359987416    0.000000000
   2  C       6.00   -0.000000000    0.840155072    0.000000000
   3  N       7.00   -1.993600965   -0.359987416    0.000000000

 Bond lengths in Bohr (Angstrom)

 1-2  2.326969446  2-3  2.326969446
     ( 1.231379201)     ( 1.231379201)

 Bond angles

  1-2-3  117.90434194

 NUCLEAR CHARGE:                   20
 NUMBER OF PRIMITIVE AOS:          81
 NUMBER OF SYMMETRY AOS:           78
 NUMBER OF CONTRACTIONS:           42   (  42A   )
 NUMBER OF CORE ORBITALS:           3   (   3A   )
 NUMBER OF VALENCE ORBITALS:       12   (  12A   )


 NUCLEAR REPULSION ENERGY   48.38777411

 EXTRA SYMMETRY OF AOS IN SYMMETRY 1:   1 1 1 1 1 2 1 1 2 1   1 2 1 2 1 1 1 1 1 2   1 1 2 1 1 2 1 2 1 1   1 1 1 2 1 1 2 1 1 2
                                        1 2

 Eigenvalues of metric

         1 0.518E-02 0.932E-02 0.281E-01 0.725E-01 0.727E-01 0.808E-01 0.100E+00 0.113E+00


 Contracted 2-electron integrals neglected if value below      1.0D-11
 AO integral compression algorithm  1   Integral accuracy      1.0D-11

     1.573 MB (compressed) written to integral file ( 42.2%)

     Node minimum: 0.524 MB, node maximum: 0.524 MB


 NUMBER OF SORTED TWO-ELECTRON INTEGRALS:     136353.     BUFFER LENGTH:  32768
 NUMBER OF SEGMENTS:   1  SEGMENT LENGTH:     136353      RECORD LENGTH: 524288

 Memory used in sort:       0.69 MW

 SORT1 READ      544483. AND WROTE       61193. INTEGRALS IN      1 RECORDS. CPU TIME:     0.00 SEC, REAL TIME:     0.01 SEC
 SORT2 READ      187869. AND WROTE      408156. INTEGRALS IN      6 RECORDS. CPU TIME:     0.01 SEC, REAL TIME:     0.01 SEC

 Node minimum:      135751.  Node maximum:      136353. integrals

 OPERATOR DM      FOR CENTER  0  COORDINATES:    0.000000    0.000000    0.000000
1PROGRAM * UHF-SCF       Authors: W. Meyer, H.-J. Werner


 NUMBER OF ELECTRONS:      11+    9-    SPACE SYMMETRY=1    SPIN SYMMETRY: Triplet 
 CONVERGENCE THRESHOLDS:    1.00E-06 (Density)    1.00E-08 (Energy)
 MAX. NUMBER OF ITERATIONS:     1000
 INTERPOLATION TYPE:            DIIS
 INTERPOLATION STEPS:              2 (START)      1 (STEP)
 LEVEL SHIFTS:                  0.20 (ALPHA)   0.20 (BETA) 

 Number of closed-shell orbitals:    9 (   9 )
 Number of open-shell orbitals:      2 (   2 )


 Molecular orbitals read from record     2200.2  Type=UHF/ALPHA (state 1.1)
 Molecular orbitals read from record     2200.2  Type=UHF/BETA (state 1.1)

 Molecular orbital dump at record        2200.2

 Initial alpha occupation  11
 Initial beta  occupation   9

 ITERATION    DDIFF          GRAD             ENERGY        2-EL.EN.            DIPOLE MOMENTS         DIIS
    1      0.000D+00      0.000D+00      -146.67363106    197.967771    0.00000    0.48731   -0.00000    0
    2      0.235D-07      0.195D-07      -146.67363106    197.967771    0.00000    0.48731   -0.00000    1
    3      0.324D-07      0.121D-07      -146.67363106    197.967771    0.00000    0.48731   -0.00000    2
 
 Final alpha occupancy:  11
 Final beta  occupancy:   9

 !UHF STATE 1.1 Energy               -146.673631058906
 Nuclear energy                        48.38777411
 One-electron energy                 -294.04529088
 Two-electron energy                   98.98388571
 Virial quotient                       -0.99770568
 !UHF STATE 1.1 Dipole moment           0.00000000     0.48730746    -0.00000000
 Dipole moment /Debye                   0.00000000     1.23853090    -0.00000000

 Orbital energies for positive spin:

         1.1          2.1          3.1          4.1          5.1          6.1          7.1          8.1          9.1         10.1
    -15.663569   -15.663490   -11.310074    -1.382327    -1.225380    -0.703046    -0.657824    -0.650762    -0.625444    -0.516573

        11.1         12.1         13.1
     -0.495561     0.085830     0.223178

 Orbital energies for negative spin:

         1.1          2.1          3.1          4.1          5.1          6.1          7.1          8.1          9.1         10.1
    -15.610514   -15.610487   -11.346482    -1.287093    -1.034290    -0.645582    -0.556171    -0.552200    -0.540651     0.082550

        11.1         12.1         13.1
      0.121391     0.132967     0.279267

 HOMO     11.1    -0.495561 =     -13.4849eV
 LUMO    -10.1     0.082550 =       2.2463eV
 LUMO-HOMO         0.578111 =      15.7312eV

 EXPECTATION VALUE OF S**2:             2.65770408

 Occupation number threshold for canonical orbitals:  1.999000 (occupied),  0.001000 (virtual)

 Number of pseudo-canonical orbitals per symmetry:    4
 Number of active natural orbitals per symmetry:     12

 Natural orbitals saved to record    2200.2 (Orbital set 3)

 Orbital spaces for UNO-CAS (Min. occupation: 0.020  Max. occupation: 1.980):



 **********************************************************************************************************************************
 DATASETS  * FILE   NREC   LENGTH (MB)   RECORD NAMES
              1      18       19.17       500      610      700      900      950      970     1000      129      960     1100   
                                          VAR    BASINP    GEOM    SYMINP    ZMAT    AOBASIS   BASIS     P2S    ABASIS      S 
                                         1400     1410     1200     1210     1080     1600     1650     1700   
                                           T        V       H0       H01     AOSYM     SMH    MOLCAS    OPER   

              2       7        0.48       700     1000      520     2200     5300     5400     5450   
                                         GEOM     BASIS   MCVARS     UHF     HESS     FREQ     NMOD   

 PROGRAMS   *        TOTAL       UHF      UMP2       UHF       INT
 CPU TIMES  *         7.11      0.17      0.04      0.05      0.24
 REAL TIME  *         8.90 SEC
 DISK USED  *        73.90 MB      
 SF USED    *         1.39 MB      
 GA USED    *         0.00 MB       (max)       0.00 MB       (current)
 **********************************************************************************************************************************


1PROGRAM * UMP2 (Unrestricted open-shell)     Authors: H.-J. Werner, 2001


 Convergence thresholds:  THRVAR = 1.00D-12  THRDEN = 1.00D-08

 Number of core orbitals:           3 (   3 )
 Number of closed-shell orbitals:   6 (   6 )
 Number of active  orbitals:        2 (   2 )
 Number of external orbitals:      31 (  31 )

 Reading UHF information from record   2200.2

                               TOTAL       A-A         B-B         A-B
 Pair energies:            -0.31258752 -0.05455516 -0.03521362 -0.22281875
 Singles energies:          0.00000000  0.00000000  0.00000000

 Reference energy                    -146.673631058906
 Correlation energy                    -0.312587522864
 !UMP2 STATE 1.1 Energy              -146.986218581770


 **********************************************************************************************************************************
 DATASETS  * FILE   NREC   LENGTH (MB)   RECORD NAMES
              1      18       19.17       500      610      700      900      950      970     1000      129      960     1100   
                                          VAR    BASINP    GEOM    SYMINP    ZMAT    AOBASIS   BASIS     P2S    ABASIS      S 
                                         1400     1410     1200     1210     1080     1600     1650     1700   
                                           T        V       H0       H01     AOSYM     SMH    MOLCAS    OPER   

              2       7        0.48       700     1000      520     2200     5300     5400     5450   
                                         GEOM     BASIS   MCVARS     UHF     HESS     FREQ     NMOD   

 PROGRAMS   *        TOTAL      UMP2      UMP2       UHF       INT
 CPU TIMES  *         7.15      0.04      0.04      0.05      0.24
 REAL TIME  *         8.95 SEC
 DISK USED  *        73.90 MB      
 SF USED    *         1.39 MB      
 GA USED    *         0.00 MB       (max)       0.00 MB       (current)
 **********************************************************************************************************************************


 **********************************************************************************************************************************
 DATASETS  * FILE   NREC   LENGTH (MB)   RECORD NAMES
              1      18       19.17       500      610      700      900      950      970     1000      129      960     1100   
                                          VAR    BASINP    GEOM    SYMINP    ZMAT    AOBASIS   BASIS     P2S    ABASIS      S 
                                         1400     1410     1200     1210     1080     1600     1650     1700   
                                           T        V       H0       H01     AOSYM     SMH    MOLCAS    OPER   

              2       7        0.48       700     1000      520     2200     5300     5400     5450   
                                         GEOM     BASIS   MCVARS     UHF     HESS     FREQ     NMOD   

 PROGRAMS   *        TOTAL      FREQ      UMP2       UHF       INT
 CPU TIMES  *         7.15      6.71      0.04      0.05      0.24
 REAL TIME  *         8.95 SEC
 DISK USED  *        73.90 MB      
 SF USED    *         1.39 MB      
 GA USED    *         0.00 MB       (max)       0.00 MB       (current)
 **********************************************************************************************************************************

 UMP2/cc-pVDZ energy=   -146.986218581770

        UMP2            UHF-SCF 
   -146.98621868   -146.67363106
 **********************************************************************************************************************************
 Variable memory released
