[Molden Format]
[Molpro variables]
_NUMVAR=  903.0000000000000    
_AVOGAD= 0.6022136736000000E+24
_BOLTZ= 0.1380658000000000E-22
_CLIGHT=  29979245800.00000    
_EV= 0.3674932379085202E-01
_ENULL= 0.8854187817000000E-11
_KJOULE= 0.3808798324128737E-03
_KJOULE/MOL= 0.3808798324128737E-03
_CM= 0.4556335267302901E-05
_CM-1= 0.4556335267302901E-05
_DEB2SI= 0.3335641000000000E-29
_AMU2AU=  1822.888390000000    
_KCAL= 0.1593601117815568E-02
_KCAL/MOL= 0.1593601117815568E-02
_KELVIN= 0.3166811411060229E-05
_JOULE= 0.4359748200000000E-17
_HERTZ= 0.1519829846004524E-15
_HZ= 0.1519829846004524E-15
_JPCAL=  4.184000000000000    
_PLANCK= 0.6626075540000000E-33
_TOA= 0.5291772109200000    
_TOANG= 0.5291772109200000    
_TORAD= 0.1745329251994330E-01
_TOCM=  219474.6306700000    
_TODEBYE=  2.541580000000000    
_TOE= 0.4803242000000000E-09
_TOEV=  27.21138505000000    
_TOHERTZ=  6579683920729000.    
_TOHZ=  6579683920729000.    
_TOK=  315775.0400000000    
_TOKCAL=  627.5096000000000    
_TOKELVIN=  315775.0400000000    
_TOKJ=  2625.500000000000    
_TOKJOULE=  2625.500000000000    
_TOKG= 0.1660565586000000E-26
_ANG=  1.889726124565062    
_ANGSTROM=  1.889726124565062    
_RPAREF=  0.000000000000000    
_RPADISS=  0.000000000000000    
_IGNORE_UNDEF=  2.000000000000000    
_STRICTCHECK=  0.000000000000000    
_SEW_ONEEL=  0.000000000000000    
_CPPDONE=FALSE
_DKROLL_DONE=  0.000000000000000    
_FOCKDONE=  0.000000000000000    
_GRADONE=FALSE
_HESSDONE=TRUE
_INTDONE=TRUE
_SCFDONE=FALSE
_MODUL_BLOCK=FALSE
_MODUL_CUDA=FALSE
_MODUL_SLATER=FALSE
_MODUL_MRCC=FALSE
_MODUL_NBO6=FALSE
_MODUL_NECI=TRUE
_MODUL_AIMS=TRUE
_MRCC_EXEC=
_FITC_AO_SAVED=FALSE
_FITC_MO_SAVED=FALSE
_SHARED_FS=TRUE
_LSTYP=SEWARD
_INTYP=INTS
_GEOMTYP=ZMAT
_GRADTYP=ALASKA
_DIRECT=FALSE
_DKHO= -1.000000000000000    
_SYNCM=  0.000000000000000    
_BASIS=AUG-CC-PVDZ
_ZUNIT=ANG
_ZORIENT=  1.000000000000000    
_CHARGE=  0.000000000000000    
_NELEC=  22.00000000000000    
_SPIN=  0.000000000000000    
!SPIN=  0.000000000000000    
_QSDSTEP=  0.000000000000000    
_QSDIRC=  0.000000000000000    
_PROGRAM=FREQ
_CPUSTEP=  0.000000000000000    
_SYSSTEP=  0.000000000000000    
_WALLSTEP=  0.000000000000000    
!DFMP2=  0.000000000000000    
!DFSCF=  0.000000000000000    
!SCSGRD=  0.000000000000000    
_BASINP=  610.0000000000000    
_CPUTOT=  7974.809999999999    
_DFTEXFAC=  1.000000000000000    
_DMX=-0.8303104453889898    
_DMY=-0.1212242857510410    
_DMZ=  0.000000000000000    
_DMX_SCF=-0.6489466881149917    
_DMY_SCF=-0.7129473392467828E-01
_DMZ_SCF=  0.000000000000000    
_FREQUENCIES= -636.0030446404324    
_EHOMO=-0.5248323846721363    
_ELUMO= 0.1437869260753269E-01
_EIGS= -20.66491698403257    
_EMP2= -184.1391574411851    
_ENERGR= -183.8188973884441    
_ENERGU= -184.1927866439017    
_ENERGY= -184.1391574411851    
_ENERGY_METHOD=RS2
_ENERGY_BASIS=aug-cc-pVDZ
_GEOMETRY_METHOD=
_GEOMETRY_BASIS=
_ENUC=  51.84083767117741    
_FREQSTEP=  16.00000000000000    
!RS2GRSTATE=  1.000000000000000    
!RS2GRSYM=  1.000000000000000    
!RS2GRSTATE_COUP=  0.000000000000000    
_GRADENERG= -184.1391559274537    
_GRADEXFAC=  9999.000000000000    
_GRADMETHOD=TRUE
_NMRMETHOD=  0.000000000000000    
_NMRMAGNET=  0.000000000000000    
_GRADRECORD=  5200.100000000000    
_VIRIAL= 0.2702525711623469    
!GRID_FREEZE= -1.000000000000000    
_ITERATIONS=  0.000000000000000    
_LASTNELEC=  12.00000000000000    
_LASTSPIN=  0.000000000000000    
_LASTSYM=  1.000000000000000    
_MPP_PROG=  1.000000000000000    
_MSENERGY= -184.1391574411851    
_MSCOEFF=  1.000000000000000    
_MSNSTATES=  1.000000000000000    
_RS2PHASE=  0.000000000000000    
_NPROC_MPP=  3.000000000000000    
_NPROC_MPPX=  3.000000000000000    
_NPROC_SMP=  1.000000000000000    
_NUMSTEP=  0.000000000000000    
_ORBITAL=  2140.200000000000    
_PI=  3.141592653589793    
!MCACT=  7.000000000000000    
!MCCLOSED=  5.000000000000000    
!MCFREEZE=  0.000000000000000    
!MCMS2=  0.000000000000000    
!MCNEL=  12.00000000000000    
!MCNSTSYM=  1.000000000000000    
!MCSTATE=  1.000000000000000    
!MCSYM=  1.000000000000000    
!MCWEIGHT=  1.000000000000000    
_SEIG_MIN= 0.1336408054322379E-03
_SEWPROP=TRUE
_STATUS=  1.000000000000000    
_SYSTOT=  212.9300000000000    
_VERSION=  2015001.000000000    
_WALLTOT=  8182.710000000000    
_ZPE= 0.5733029647588103E-02
_DATE=17-Aug-21
_LASTORB=MCSCF
_MACHINE= 64 bit mpp version
_OUTPUT=/lcrc/project/CMRP/amech/autoio/autoio-interfaces/autorun/tests/tmp-mol/HESS-1/run.out
_PGROUP=Cs
_TIME=11:11:02
_LIBMOL=/blues/gpfs/home/software/molpro/2015.1_170920/bebop/molprop_2015_1_linux_x86_64_i8/lib/
_VIGRDC=  0.000000000000000    
!VIBCNT=  0.000000000000000    
!RGHFCNT=  0.000000000000000    
!SURFREC=  0.000000000000000    
!ROTREC=  0.000000000000000    
!POLYREC=  0.000000000000000    
!DIPREC=  0.000000000000000    
!DIP4DREC=  0.000000000000000    
!DIPROT=  0.000000000000000    
!DIP4DROT=  0.000000000000000    
!PTREC=  0.000000000000000    
!PT4DREC=  0.000000000000000    
!VSCFREC=  0.000000000000000    
!VCIREC=  0.000000000000000    
!PVCIREC=  0.000000000000000    
!VMP2REC=  0.000000000000000    
!VMCSCFREC=  0.000000000000000    
!VMRCIREC=  0.000000000000000    
!VIBSTATEREC=  0.000000000000000    
!VIBSTATECNT=  0.000000000000000    
!VIBINFO=  0.000000000000000    
!GAREC=  0.000000000000000    
!SCFORB=  21002.00000000000    
!MCORB=  21402.00000000000    
!CIOCC=  12.00000000000000    
!CICORE=  3.000000000000000    
!CICLOS=  5.000000000000000    
!CIISTSYM=  1.000000000000000    
!CIISTMS2=  0.000000000000000    
!CIISTNEL=  16.00000000000000    
!NEWMOL=  0.000000000000000    
!NEWSYM=  1.000000000000000    
_SLFILES=slscratch
_NGSSTO=  9.000000000000000    
_SIN=SIN
_COS=COS
_TAN=TAN
_ACOS=ACOS
_ASIN=ASIN
_ATAN=ATAN
_COSH=COSH
_SINH=SINH
_TANH=TANH
_ABS=ABS
_MOD=MOD
_ERF=ERF
_REFC=REFC
_ERFC=ERFC
_HYPOT=HYPOT
_J0=J0
_J1=J1
_JN=JN
_GAMMA=GAMMA
_LGAMMA=LGAMMA
_Y0=Y0
_Y1=Y1
_YN=YN
_EXP=EXP
_LOG=LOG
_LOG10=LOG10
_SQRT=SQRT
_INT=INT
_NINT=NINT
_MAX=MAX
_MIN=MIN
_COSMO=  0.000000000000000    
_COSMOIT=  0.000000000000000    
_COSMOES=  0.000000000000000    
_COSMOEDS=  0.000000000000000    
_COSMOEC=  0.000000000000000    
_COSMOEDCORR=  0.000000000000000    
_FEPSI=  1.000000000000000    
_SL_IsMM=  0.000000000000000    
_SL_NSYM=  2.000000000000000    
_SL_System_BitSw=  0.000000000000000    
_SL_Unique_atoms=  0.000000000000000    
_SL_GRAD=  0.000000000000000    
_SL_MAXUPD_Hess=  5.000000000000000    
_SL_N_PRINT_COD=  5.000000000000000    
_SL_PRINT_CODES=  0.000000000000000    
_SL_BasType=  0.000000000000000    
_SL_Energy_Pred=  0.000000000000000    
_SL_New_Coords=  0.000000000000000    
_SL_Total_Nuclea=  0.000000000000000    
_SL_Highest_Mltp=  0.000000000000000    
_SL_Ref_Geom=  0.000000000000000    
_SL_Symmetry_ope=  3.000000000000000    
_SL_agrad=  0.000000000000000    
_SL_GrdMax=  0.000000000000000    
_SL_GrdNorm=  0.000000000000000    
_SL_GrdRMS=  0.000000000000000    
_SL_Hss_Q=  0.000000000000000    
_SL_Hss_X=  0.000000000000000    
_SL_BMxOld=  0.000000000000000    
_SL_KtB=  0.000000000000000    
_SL_TROld=  0.000000000000000    
_SL_No_of_Intern=  0.000000000000000    
_SL_Hess=  0.000000000000000    
_SL_K=  0.000000000000000    
!LATTICE= -1.000000000000000    
!NEWLATTICE=  0.000000000000000    
!LATGRAD_VAR=FALSE
!SEW_LATTICE=  1.000000000000000    
!LOCAL=  0.000000000000000    
!SAVEOCC=  0.000000000000000    
!SAVEDOM= -1.000000000000000    
!RESTDOM= -1.000000000000000    
!SAVEDOM_HF= -1.000000000000000    
!RESTDOM_HF= -1.000000000000000    
!HESSREC=  5300.200000000000    
!FREQREC=  5400.200000000000    
!NMODREC=  5450.200000000000    
!GTASKS=  0.000000000000000    
!HTASKS=  5500.200000000000    
!SAVEDOM_EOM= -1.000000000000000    
!RESTDOM_EOM= -1.000000000000000    
!GRADSTATE= -1.000000000000000    
!THRCHG= 0.1000000000000000    
!DEBUG= -1.000000000000000    
!CFIT_CPHF=  0.000000000000000    
!RDOMAUX_CPHF=  3.000000000000000    
!THRAO_CPHF= 0.1000000000000000E-09
!THRMO_CPHF= 0.1000000000000000E-09
!THROV_CPHF= 0.1000000000000000E-11
!THRSW_CPHF= 0.1000000000000000E-09
!THRPROD_CPHF= 0.1000000000000000E-09
!THRAOPR_CPHF= 0.1000000000000000E-11
!CFIT_SCFGRD=  0.000000000000000    
!RDOMAUX_SCFGRD=  5.000000000000000    
!THRAO_SCFGRD= 0.1000000000000000E-09
!THRMO_SCFGRD= 0.1000000000000000E-09
!THROV_SCFGRD= 0.1000000000000000E-11
!THRSW_SCFGRD= 0.1000000000000000E-09
!THRPROD_SCFGRD= 0.1000000000000000E-09
!THRAOPR_SCFGRD= 0.1000000000000000E-11
!LOCFIT_SCF=  0.000000000000000    
!LOCFIT_MP2= -1.000000000000000    
_RIDOM=  0.000000000000000    
!CC2_METHOD=  0.000000000000000    
_BASIS2006=FALSE
_SVDDEL= -1.000000000000000    
_SVDDELA= -1.000000000000000    
_SVDDELP= -1.000000000000000    
_SVDDELF= -1.000000000000000    
_SVDDELS= -1.000000000000000    
_SVDDEL_ABS= -1.000000000000000    
_SVDDELA_ABS= -1.000000000000000    
_SVDDELP_ABS= -1.000000000000000    
_SVDDELF_ABS= -1.000000000000000    
_SVDDELS_ABS= -1.000000000000000    
_MAXBASIS=  0.000000000000000    
!OPT_CONICAL=  0.000000000000000    
!CLEARSP_JGRID=  0.000000000000000    
_GRDHYBR=  0.000000000000000    
_STATEGRAD=  1.000000000000000    
_4EXT_NDISKS=  1.000000000000000    
!ZMP=  0.000000000000000    
_MAXIT_ZMP=  500.0000000000000    
_MAXDIS_ZMP=  100.0000000000000    
_ACCU_ZMP=  14.00000000000000    
_SHIFTA_ZMP= -100.0000000000000    
!EMBEDFLAG=  1.000000000000000    
!EMBED=FALSE
!EMBED_F12=FALSE
!EMBEDNUC=  0.000000000000000    
_EMBEDENERGY=  0.000000000000000    
_KSPACETIME=  0.000000000000000    
_RSPACETIME=  0.000000000000000    
!EMBED_DFC=FALSE
!NUM_VOIDS=  0.000000000000000    
_IBODY=  0.000000000000000    
_EMBE_TOTAL=  0.000000000000000    
_EMBE_HF=  0.000000000000000    
_EMBE_CORR=  0.000000000000000    
!EMBED_PROJ=FALSE
!EMBED_TRUNC=  0.000000000000000    
!EMB_PROJ_ZMU=  1000000.000000000    
!CORRECTION=  0.000000000000000    
!CORRECTION_HF=  0.000000000000000    
!EMBED_ENERGY=  0.000000000000000    
!EMBED_NAXC=FALSE
!EMBED_AORB=  0.000000000000000    
!EMBED_NACORR=  0.000000000000000    
!EMBED_MP2=FALSE
!EMBED_TRUNC_PERTURBATION=FALSE
!EMBED_FROZEN=  0.000000000000000    
_CHANGE_BASIS=FALSE
_RESTORE_BASIS=FALSE
_FIX_EMBED_GUESS=FALSE
!EDFT=  0.000000000000000    
_IFASTLATGRAD=  0.000000000000000    
_SINDEX=  0.000000000000000    
_AVDOM_OSV=  0.000000000000000    
_AVDOM_PNO=  0.000000000000000    
_AVDOM_PAO=  0.000000000000000    
_AVDOM_LMO=  0.000000000000000    
_CC2OSV_FLAG=  0.000000000000000    
_TMADC2_FLAG=FALSE
_PROPADC2_FLAG=FALSE
_LEN_VirQ=  0.000000000000000    
_GRDCC2LR_FLAG=FALSE
_GRDADC2_FLAG=FALSE
_DMX_CC=  1.290244433505954    
_DMY_CC=-0.6663472902346315    
_DMZ_CC=  0.000000000000000    
_DMX_NUC= 0.1105489783099856E-01
_DMY_NUC= 0.8069130610000030E-03
_DMZ_NUC=  0.000000000000000    
GX1=-0.2614380000000000    
GY1=-0.2876930000000000    
GZ1=  0.000000000000000    
GX2= -1.293564000000000    
GY2= 0.1758500000000000    
GZ2=  0.000000000000000    
GX3=  1.361358000000000    
GY3= 0.9791600000000000E-01
GZ3=  0.000000000000000    
NN=  1.000000000000000    
NX1=-0.4940462185540406    
NY1=-0.5436609779544963    
NZ1=  0.000000000000000    
NX2= -2.444481684596879    
NY2= 0.3323083390047661    
NZ2=  0.000000000000000    
OX3=  2.572593777485644    
OY3= 0.1850344232129126    
OZ3=  0.000000000000000    
[Atoms] Angs
N     1    7        -0.2614380000       -0.2876930000        0.0000000000
N     2    7        -1.2935640000        0.1758500000        0.0000000000
O     3    8         1.3613580000        0.0979160000        0.0000000000
[GTO]
   1 0
 s    9  1.00
  0.9046000000D+04  0.7000000346D-03
  0.1357000000D+04  0.5389000266D-02
  0.3093000000D+03  0.2740600135D-01
  0.8773000000D+02  0.1032070051D+00
  0.2856000000D+02  0.2787230138D+00
  0.1021000000D+02  0.4485400222D+00
  0.3838000000D+01  0.2782380137D+00
  0.7466000000D+00  0.1544000076D-01
  0.2248000000D+00 -0.2864000141D-02
 s    9  1.00
  0.9046000000D+04 -0.1529999886D-03
  0.1357000000D+04 -0.1207999910D-02
  0.3093000000D+03 -0.5991999553D-02
  0.8773000000D+02 -0.2454399817D-01
  0.2856000000D+02 -0.6745899497D-01
  0.1021000000D+02 -0.1580779882D+00
  0.3838000000D+01 -0.1218309909D+00
  0.7466000000D+00  0.5490029590D+00
  0.2248000000D+00  0.5788149568D+00
 s    9  1.00
  0.9046000000D+04  0.0000000000D+00
  0.1357000000D+04  0.0000000000D+00
  0.3093000000D+03  0.0000000000D+00
  0.8773000000D+02  0.0000000000D+00
  0.2856000000D+02  0.0000000000D+00
  0.1021000000D+02  0.0000000000D+00
  0.3838000000D+01  0.0000000000D+00
  0.7466000000D+00  0.0000000000D+00
  0.2248000000D+00  0.1000000000D+01
 s    1  1.00
  0.6124000000D-01  0.1000000000D+01
 p    4  1.00
  0.1355000000D+02  0.3991901233D-01
  0.2917000000D+01  0.2171690671D+00
  0.7973000000D+00  0.5103191576D+00
  0.2185000000D+00  0.4622141427D+00
 p    4  1.00
  0.1355000000D+02  0.0000000000D+00
  0.2917000000D+01  0.0000000000D+00
  0.7973000000D+00  0.0000000000D+00
  0.2185000000D+00  0.1000000000D+01
 p    1  1.00
  0.5611000000D-01  0.1000000000D+01
 d    1  1.00
  0.8170000000D+00  0.1000000000D+01
 d    1  1.00
  0.2300000000D+00  0.1000000000D+01
  
   2 0
 s    9  1.00
  0.9046000000D+04  0.7000000346D-03
  0.1357000000D+04  0.5389000266D-02
  0.3093000000D+03  0.2740600135D-01
  0.8773000000D+02  0.1032070051D+00
  0.2856000000D+02  0.2787230138D+00
  0.1021000000D+02  0.4485400222D+00
  0.3838000000D+01  0.2782380137D+00
  0.7466000000D+00  0.1544000076D-01
  0.2248000000D+00 -0.2864000141D-02
 s    9  1.00
  0.9046000000D+04 -0.1529999886D-03
  0.1357000000D+04 -0.1207999910D-02
  0.3093000000D+03 -0.5991999553D-02
  0.8773000000D+02 -0.2454399817D-01
  0.2856000000D+02 -0.6745899497D-01
  0.1021000000D+02 -0.1580779882D+00
  0.3838000000D+01 -0.1218309909D+00
  0.7466000000D+00  0.5490029590D+00
  0.2248000000D+00  0.5788149568D+00
 s    9  1.00
  0.9046000000D+04  0.0000000000D+00
  0.1357000000D+04  0.0000000000D+00
  0.3093000000D+03  0.0000000000D+00
  0.8773000000D+02  0.0000000000D+00
  0.2856000000D+02  0.0000000000D+00
  0.1021000000D+02  0.0000000000D+00
  0.3838000000D+01  0.0000000000D+00
  0.7466000000D+00  0.0000000000D+00
  0.2248000000D+00  0.1000000000D+01
 s    1  1.00
  0.6124000000D-01  0.1000000000D+01
 p    4  1.00
  0.1355000000D+02  0.3991901233D-01
  0.2917000000D+01  0.2171690671D+00
  0.7973000000D+00  0.5103191576D+00
  0.2185000000D+00  0.4622141427D+00
 p    4  1.00
  0.1355000000D+02  0.0000000000D+00
  0.2917000000D+01  0.0000000000D+00
  0.7973000000D+00  0.0000000000D+00
  0.2185000000D+00  0.1000000000D+01
 p    1  1.00
  0.5611000000D-01  0.1000000000D+01
 d    1  1.00
  0.8170000000D+00  0.1000000000D+01
 d    1  1.00
  0.2300000000D+00  0.1000000000D+01
  
   3 0
 s    9  1.00
  0.1172000000D+05  0.7100002503D-03
  0.1759000000D+04  0.5470001928D-02
  0.4008000000D+03  0.2783700981D-01
  0.1137000000D+03  0.1048000369D+00
  0.3703000000D+02  0.2830620998D+00
  0.1327000000D+02  0.4487191582D+00
  0.5025000000D+01  0.2709520955D+00
  0.1013000000D+01  0.1545800545D-01
  0.3023000000D+00 -0.2585000911D-02
 s    9  1.00
  0.1172000000D+05 -0.1600000154D-03
  0.1759000000D+04 -0.1263000121D-02
  0.4008000000D+03 -0.6267000602D-02
  0.1137000000D+03 -0.2571600247D-01
  0.3703000000D+02 -0.7092400682D-01
  0.1327000000D+02 -0.1654110159D+00
  0.5025000000D+01 -0.1169550112D+00
  0.1013000000D+01  0.5573680536D+00
  0.3023000000D+00  0.5727590551D+00
 s    9  1.00
  0.1172000000D+05  0.0000000000D+00
  0.1759000000D+04  0.0000000000D+00
  0.4008000000D+03  0.0000000000D+00
  0.1137000000D+03  0.0000000000D+00
  0.3703000000D+02  0.0000000000D+00
  0.1327000000D+02  0.0000000000D+00
  0.5025000000D+01  0.0000000000D+00
  0.1013000000D+01  0.0000000000D+00
  0.3023000000D+00  0.1000000000D+01
 s    1  1.00
  0.7896000000D-01  0.1000000000D+01
 p    4  1.00
  0.1770000000D+02  0.4301799242D-01
  0.3854000000D+01  0.2289129597D+00
  0.1046000000D+01  0.5087279104D+00
  0.2753000000D+00  0.4605309189D+00
 p    4  1.00
  0.1770000000D+02  0.0000000000D+00
  0.3854000000D+01  0.0000000000D+00
  0.1046000000D+01  0.0000000000D+00
  0.2753000000D+00  0.1000000000D+01
 p    1  1.00
  0.6856000000D-01  0.1000000000D+01
 d    1  1.00
  0.1185000000D+01  0.1000000000D+01
 d    1  1.00
  0.3320000000D+00  0.1000000000D+01
 
 
[MO]
 Sym=      1.1
 Ene=     -20.6384
 Spin= Alpha
 Occup=    2.000000
1 -0.000901058631535
2 -0.002930044429497
3 -0.001299630196368
4 -0.000784714975904
5 -0.001614030688192
6 -0.000278010225853
7 0.0
8 0.008768035544477
9 -0.001931704724673
10 0.0
11 -0.000575427506810
12 -0.000241359118206
13 0.0
14 0.000091439476685
15 -0.000057117726249
16 -0.000034321750436
17 -0.000046399258862
18 0.0
19 0.0
20 0.001991869291656
21 -0.001244756172876
22 -0.000747113118780
23 0.002626225178430
24 0.0
25 0.0
26 -0.000313123785806
27 -0.000267313451421
28 0.008245791281793
29 0.000565255491176
30 0.000186197405323
31 0.000408894554033
32 0.0
33 0.004132609420445
34 0.000039949864295
35 0.0
36 0.000243082605081
37 0.000126813765322
38 0.0
39 0.000036562239654
40 -0.000048255883956
41 0.000011693644301
42 0.000045162893923
43 0.0
44 0.0
45 0.000839054626077
46 -0.000839292248350
47 0.000000237622273
48 -0.000136256858617
49 0.0
50 0.0
51 1.00088991861267
52 -0.013601177235572
53 -0.008544405649917
54 0.000244997520793
55 -0.000183255636641
56 -0.003749835139950
57 0.0
58 0.005450750313848
59 0.001109268633394
60 0.0
61 -0.000192564885012
62 -0.000363988756194
63 0.0
64 -0.000387745681808
65 0.000149125340011
66 0.000238620341797
67 -0.000243759234625
68 0.0
69 0.0
70 -0.001652729241911
71 0.000869341611363
72 0.000783387630548
73 -0.000553884120064
74 0.0
75 0.0
 Sym=      2.1
 Ene=     -15.7489
 Spin= Alpha
 Occup=    2.000000
1 1.00121750964420
2 0.002390596655249
3 -0.029289291516500
4 -0.013543600018019
5 -0.006544807102634
6 0.002586562227573
7 0.0
8 0.014130443554457
9 -0.005121604926114
10 0.0
11 0.002274328516499
12 -0.001361544681389
13 0.0
14 0.000619468326005
15 -0.000202743820541
16 -0.000416724505464
17 -0.000701873226630
18 0.0
19 0.0
20 -0.005054763239084
21 0.002321838765484
22 0.002732924473600
23 0.002489275826486
24 0.0
25 0.0
26 0.042080186311020
27 -0.000070777674662
28 0.023980496359289
29 0.011915108721300
30 0.000940589668398
31 0.000269866795634
32 0.0
33 0.009313120086084
34 -0.005980489939795
35 0.0
36 0.002188992726478
37 -0.000904167033248
38 0.0
39 -0.000300592561465
40 0.000110369923073
41 0.000190222638391
42 0.000236724535048
43 0.0
44 0.0
45 0.000768734860271
46 0.000077033404464
47 -0.000845768264734
48 -0.001639911324548
49 0.0
50 0.0
51 0.000401014374048
52 -0.006554396933950
53 0.001792729815294
54 0.001568563736199
55 0.002573053129337
56 -0.000918797901766
57 0.0
58 -0.000668593699388
59 -0.001034893457063
60 0.0
61 -0.000558906818541
62 -0.000142218613964
63 0.0
64 -0.000075721077832
65 -0.000001288570305
66 0.000077009648138
67 -0.000089642034257
68 0.0
69 0.0
70 -0.000152486830060
71 0.000285127157582
72 -0.000132640327521
73 0.000499777802910
74 0.0
75 0.0
 Sym=      3.1
 Ene=     -15.7196
 Spin= Alpha
 Occup=    2.000000
1 -0.043260979745755
2 0.000629370378066
3 0.018157395000230
4 0.005909114851932
5 -0.000975832886345
6 0.000080523718514
7 0.0
8 -0.007897715556695
9 0.004247318030585
10 0.0
11 -0.001217548256425
12 0.000588906681007
13 0.0
14 -0.000409879301556
15 0.000115145790030
16 0.000294733511525
17 0.000348051603626
18 0.0
19 0.0
20 -0.000232448894247
21 0.000479601410153
22 -0.000247152515907
23 -0.000780545946600
24 0.0
25 0.0
26 1.00097604396617
27 0.008641428164047
28 -0.023467938815635
29 -0.006631177415786
30 0.005695115117173
31 -0.002791765243686
32 0.0
33 -0.013369686572072
34 0.005108040449629
35 0.0
36 -0.001460049460946
37 0.000610044407592
38 0.0
39 0.000880466538166
40 -0.000314285225612
41 -0.000566181312554
42 -0.000761753416227
43 0.0
44 0.0
45 -0.003063191207555
46 0.001196326040200
47 0.001866865167355
48 0.002089552912366
49 0.0
50 0.0
51 -0.000024681696417
52 -0.001081043946469
53 0.000973529368542
54 0.000479216598729
55 0.000230661680127
56 0.000038520743539
57 0.0
58 -0.000481868868479
59 -0.000633346651215
60 0.0
61 -0.000104480526241
62 -0.000121972034446
63 0.0
64 -0.000003739258254
65 -0.000027709189404
66 0.000031448447658
67 -0.000059956882832
68 0.0
69 0.0
70 -0.000032335193390
71 0.000137695454458
72 -0.000105360261068
73 0.000423345398848
74 0.0
75 0.0
 Sym=      4.1
 Ene=      -1.0030
 Spin= Alpha
 Occup=    2.000000
1 -0.007872905087102
2 0.070544740799691
3 -0.19069514060484
4 -0.074013110931283
5 -0.043859043941566
6 -0.001463526877157
7 0.0
8 0.11089156990700
9 -0.051091379079466
10 0.0
11 0.019111648049052
12 -0.007864330197646
13 0.0
14 0.010463193813954
15 -0.004233672934360
16 -0.006229520879594
17 -0.006622310040117
18 0.0
19 0.0
20 -0.003301368526336
21 -0.002375664440098
22 0.005677032966434
23 0.016168630307426
24 0.0
25 0.0
26 -0.007551401397301
27 0.91051770715956
28 0.14657259504147
29 0.11465007534245
30 -0.32548978804447
31 0.10520442497185
32 0.0
33 0.095402068251233
34 -0.032567476278430
35 0.0
36 0.007917667546834
37 -0.005379114040644
38 0.0
39 -0.003939588365962
40 0.001819506626146
41 0.002120081739815
42 0.001843633939686
43 0.0
44 0.0
45 0.015131065366977
46 -0.007027726659973
47 -0.008103338707004
48 -0.009631909065393
49 0.0
50 0.0
51 0.000556121726025
52 0.023549012755986
53 -0.010787905014803
54 -0.008348470368716
55 -0.013894605730399
56 -0.016702913882622
57 0.0
58 0.004664546473093
59 0.002299291053671
60 0.0
61 0.000304058383539
62 0.000826185476633
63 0.0
64 0.000058089340780
65 0.000045343714483
66 -0.000103433055264
67 0.000570450529419
68 0.0
69 0.0
70 0.000108798662482
71 0.000147030524962
72 -0.000255829187444
73 -0.001516511469281
74 0.0
75 0.0
 Sym=      5.1
 Ene=      -0.5602
 Spin= Alpha
 Occup=    2.000000
1 -0.000154376605103
2 0.033317961914407
3 0.026928738361508
4 0.038337242593259
5 -0.002374451929818
6 -0.055138939127854
7 0.0
8 -0.028043295363442
9 0.008949718882889
10 0.0
11 -0.009003594373844
12 0.010100148700384
13 0.0
14 0.004241023796427
15 -0.003704383830333
16 -0.000536639966095
17 -0.011698534369030
18 0.0
19 0.0
20 0.005729519529203
21 -0.003907382799496
22 -0.001822136729707
23 -0.018722796736688
24 0.0
25 0.0
26 -0.000153522592111
27 -0.004208653756284
28 -0.042801846887426
29 -0.040496145955302
30 0.032176815606094
31 0.021753578563209
32 0.0
33 -0.018079252674207
34 0.014993409792409
35 0.0
36 -0.005074739894234
37 0.008126564165911
38 0.0
39 -0.000920281430690
40 0.000552532765698
41 0.000367748664992
42 -0.000594952046011
43 0.0
44 0.0
45 -0.002338963606780
46 0.001362801406186
47 0.000976162200594
48 0.001758336771923
49 0.0
50 0.0
51 -0.000044948091570
52 0.21359544094593
53 0.002677238738338
54 0.007917748787132
55 0.30585099939285
56 -0.87824042120177
57 0.0
58 -0.004257666365476
59 -0.011251831614783
60 0.0
61 0.020490734390124
62 -0.065076071773876
63 0.0
64 -0.002848404990577
65 0.002358311852793
66 0.000490093137783
67 0.004462156227407
68 0.0
69 0.0
70 -0.002870448778228
71 0.002161563553723
72 0.000708885224505
73 0.009576818347488
74 0.0
75 0.0
 Sym=      6.1
 Ene=      -1.2485
 Spin= Alpha
 Occup=    1.993133
1 0.005647600480758
2 0.27529080131530
3 0.082632160388628
4 0.043060960183249
5 0.14498838265536
6 0.017777845116699
7 0.0
8 -0.13592878181685
9 0.025310512559913
10 0.0
11 -0.011582719889868
12 0.001120543043507
13 0.0
14 0.008935023227692
15 -0.003680878045125
16 -0.005254145182567
17 0.006636961169869
18 0.0
19 0.0
20 0.004002788625122
21 0.000090495424916
22 -0.004093284050038
23 -0.020968951232222
24 0.0
25 0.0
26 0.002257606263395
27 -0.033166497984357
28 -0.16506000324467
29 -0.054664205053596
30 0.031354528065283
31 -0.016242055277257
32 0.0
33 -0.084130018189162
34 0.028587824860275
35 0.0
36 -0.010057410024116
37 0.003311738577494
38 0.0
39 0.004070220252675
40 -0.002683752028781
41 -0.001386468223893
42 0.000443505323520
43 0.0
44 0.0
45 -0.012441509904694
46 0.006048804227396
47 0.006392705677298
48 0.010845404615327
49 0.0
50 0.0
51 0.012576135048159
52 0.86694473545453
53 0.011860715094975
54 0.034095197413156
55 -0.11935376877948
56 0.17234690034805
57 0.0
58 -0.033946612043693
59 -0.002709910214171
60 0.0
61 -0.005284598367313
62 0.013872688315016
63 0.0
64 0.005379301076969
65 -0.002526854818431
66 -0.002852446258539
67 0.001048819541304
68 0.0
69 0.0
70 0.016590358919012
71 -0.009191086024663
72 -0.007399272894349
73 0.001460887611136
74 0.0
75 0.0
 Sym=      1.2
 Ene=      -0.5221
 Spin= Alpha
 Occup=    1.985480
1 0.0
2 0.0
3 0.0
4 0.0
5 0.0
6 0.0
7 0.13403917687009
8 0.0
9 0.0
10 0.000233787940493
11 0.0
12 0.0
13 -0.002817199169042
14 0.0
15 0.0
16 0.0
17 0.0
18 0.012517672315678
19 0.002035216691064
20 0.0
21 0.0
22 0.0
23 0.0
24 0.012768348015915
25 0.002733435164954
26 0.0
27 0.0
28 0.0
29 0.0
30 0.0
31 0.0
32 -0.054008811788205
33 0.0
34 0.0
35 -0.013954197390843
36 0.0
37 0.0
38 -0.008835778246011
39 0.0
40 0.0
41 0.0
42 0.0
43 0.003526315155442
44 -0.001474477329300
45 0.0
46 0.0
47 0.0
48 0.0
49 -0.001863882637657
50 0.000049397162676
51 0.0
52 0.0
53 0.0
54 0.0
55 0.0
56 0.0
57 0.93606445160476
58 0.0
59 0.0
60 0.011470136527194
61 0.0
62 0.0
63 0.068096012197943
64 0.0
65 0.0
66 0.0
67 0.0
68 -0.006246459825298
69 -0.001356415678757
70 0.0
71 0.0
72 0.0
73 0.0
74 -0.012351532069077
75 -0.001855269303559
 Sym=      7.1
 Ene=      -1.2238
 Spin= Alpha
 Occup=    1.981959
1 0.001701914425498
2 -0.74552638781264
3 0.10045909001619
4 -0.034414451413635
5 0.32512111401346
6 -0.17374290608902
7 0.0
8 -0.087118137175072
9 0.048254609890325
10 0.0
11 -0.016092968291388
12 0.005305871690554
13 0.0
14 -0.014210602044089
15 0.003600358969020
16 0.010610243075069
17 0.015865877632180
18 0.0
19 0.0
20 -0.031410945708296
21 0.017672782142747
22 0.013738163565549
23 -0.004633772728878
24 0.0
25 0.0
26 0.009012162086867
27 -0.15649756439621
28 0.26686120591190
29 0.046653475554883
30 -0.58571424332290
31 0.20950484304427
32 0.0
33 0.15017344185336
34 -0.087361837666904
35 0.0
36 0.009065368709460
37 -0.005397889228528
38 0.0
39 -0.028732557793790
40 0.010837848240654
41 0.017894709553136
42 0.021266259430226
43 0.0
44 0.0
45 -0.004521274835384
46 0.007783430288812
47 -0.003262155453428
48 -0.008227888238598
49 0.0
50 0.0
51 0.001460298925618
52 0.20941287896003
53 0.028733709498318
54 0.033367266572048
55 0.015015913591583
56 0.036479020979792
57 0.0
58 -0.027880127883548
59 -0.006024502818657
60 0.0
61 -0.006511945339174
62 -0.003543650223816
63 0.0
64 -0.001517962302500
65 0.000753715287102
66 0.000764247015398
67 -0.000539606219729
68 0.0
69 0.0
70 0.004025717736329
71 -0.001309169999008
72 -0.002716547737322
73 0.003466137444086
74 0.0
75 0.0
 Sym=      8.1
 Ene=      -0.7190
 Spin= Alpha
 Occup=    1.955682
1 -0.001748190582508
2 -0.46243145400215
3 -0.32527617070565
4 -0.17924092457915
5 -0.62347216516550
6 0.22897989671211
7 0.0
8 0.24684632954831
9 -0.078581610982657
10 0.0
11 0.043761003341415
12 -0.013033700231278
13 0.0
14 0.003884828567842
15 0.000234495499088
16 -0.004119324066931
17 -0.013645636592224
18 0.0
19 0.0
20 -0.029868505119339
21 0.014802162960729
22 0.015066342158610
23 0.018363607040007
24 0.0
25 0.0
26 -0.000534592629118
27 0.19082313839395
28 0.13676893423082
29 0.13841627599282
30 0.30221142555500
31 -0.13204125269652
32 0.0
33 0.056122778808176
34 -0.040920723516318
35 0.0
36 0.023369941629604
37 -0.015030282348026
38 0.0
39 0.008370374202129
40 -0.001703121780755
41 -0.006667252421373
42 -0.010549643288953
43 0.0
44 0.0
45 0.018476791411111
46 -0.002939625927749
47 -0.015537165483362
48 -0.025634757921033
49 0.0
50 0.0
51 0.011958586608887
52 0.38622384722241
53 0.024083110313729
54 0.024730864575595
55 0.29655282269720
56 0.12173197486505
57 0.0
58 0.000511609577543
59 -0.004554747153026
60 0.0
61 -0.000521541297048
62 0.005016226389403
63 0.0
64 -0.010809583438498
65 0.004755989343038
66 0.006053594095460
67 -0.006534912443945
68 0.0
69 0.0
70 -0.020625972140153
71 0.010084633177928
72 0.010541338962225
73 -0.008492975233380
74 0.0
75 0.0
 Sym=      2.2
 Ene=      -0.6255
 Spin= Alpha
 Occup=    1.931104
1 0.0
2 0.0
3 0.0
4 0.0
5 0.0
6 0.0
7 0.66569210475414
8 0.0
9 0.0
10 -0.080821646095870
11 0.0
12 0.0
13 0.000031300646547
14 0.0
15 0.0
16 0.0
17 0.0
18 -0.034764780324489
19 0.014812939133350
20 0.0
21 0.0
22 0.0
23 0.0
24 -0.016439291971644
25 0.002818623656282
26 0.0
27 0.0
28 0.0
29 0.0
30 0.0
31 0.0
32 0.66179812667295
33 0.0
34 0.0
35 -0.064589082203242
36 0.0
37 0.0
38 0.011059313801788
39 0.0
40 0.0
41 0.0
42 0.0
43 0.037884882895616
44 -0.017135780063992
45 0.0
46 0.0
47 0.0
48 0.0
49 0.013192251542754
50 -0.006555808725505
51 0.0
52 0.0
53 0.0
54 0.0
55 0.0
56 0.0
57 -0.10571895827278
58 0.0
59 0.0
60 -0.008407038732633
61 0.0
62 0.0
63 -0.013641105356361
64 0.0
65 0.0
66 0.0
67 0.0
68 -0.002424237516148
69 -0.000310136871502
70 0.0
71 0.0
72 0.0
73 0.0
74 -0.002594531145290
75 -0.001568175963822
 Sym=      9.1
 Ene=      -0.6287
 Spin= Alpha
 Occup=    1.927737
1 -0.000798752910402
2 0.096187415284777
3 0.023195637640984
4 -0.017598562537152
5 -0.23594268651877
6 -0.63602750429532
7 0.0
8 0.046222554666801
9 0.071073542307428
10 0.0
11 0.006756468136759
12 -0.004032889054981
13 0.0
14 0.019628032710448
15 -0.021334546646687
16 0.001706513936240
17 0.026139023610775
18 0.0
19 0.0
20 0.019029120353000
21 -0.013573891377170
22 -0.005455228975830
23 0.019104885871590
24 0.0
25 0.0
26 -0.003341213908041
27 -0.065215135329762
28 0.007889437197285
29 0.030168900668962
30 -0.24651135514499
31 -0.58678435988658
32 0.0
33 0.033811726445331
34 0.065056923535159
35 0.0
36 0.004856262540573
37 -0.012404784493282
38 0.0
39 -0.025365777997676
40 0.026251806542339
41 -0.000886028544663
42 -0.028534610350100
43 0.0
44 0.0
45 -0.005814200587448
46 0.006506126123318
47 -0.000691925535870
48 -0.007402417060890
49 0.0
50 0.0
51 0.004717895937957
52 0.064772034239661