
 Primary working directories    : /scratch/kmoore
 Secondary working directories  : /scratch/kmoore
 Wavefunction directory         : /scratch/kmoore/
 Main file repository           : /scratch/kmoore/

 SHA1      : b6b3a4772808bb2d43777f23454e145ddfe12dc3
 NAME      : 2015.1.1
 ARCHNAME  : linux/x86_64
 FC        : /soft/mvapich2/2.2b_psm/intel-15.0/bin/mpif90
 BLASLIB   : -L/soft/intel/15.0.1/composer_xe_2015.0.090/mkl/lib/intel64 -lmkl_intel_ilp64 -lmkl_sequential -lmkl_core
 id        : anlgov

 Nodes     nprocs
 b442         3
 Number of processes for MPI-2 version of Molpro:   nprocs(total)=    4   nprocs(compute)=    3   nprocs(helper)=    1

 Using customized tuning parameters: mindgm=1; mindgv=20; mindgc=4; mindgr=1; noblas=0; minvec=7
 default implementation of scratch files=sf  

 ***,CASPT2 calculation for the singlet state
 memory,1000,m
 
 noorient
 nosym
 geometry
 N      1.054968198610399    -0.190497136933746    -0.000000000000000
 C     -0.000000000000041     0.444590917545206     0.000000000000000
 N     -1.054968198610434    -0.190497136933725    -0.000000000000000
 end
 
 nn(1)=1
 nn(2)=2
 nn(3)=3
 
 basis=cc-pVDZ
 {hf,maxit=1000
   wf,20,1,0,0}
 {mp2}
 {freq,noproject
  print,hessian}
 

 Variables initialized (889), CPU time= 0.00 sec
 Commands  initialized (702), CPU time= 0.01 sec, 572 directives.
 Default parameters read. Elapsed time= 0.05 sec

 Checking input...
 Passed
1


                                         ***  PROGRAM SYSTEM MOLPRO  ***
                                       Copyright, TTI GmbH Stuttgart, 2015
                                    Version 2015.1 linked Jan  8 2016 07:59:11


 **********************************************************************************************************************************
 LABEL *   CASPT2 calculation for the singlet state                                      
  64 bit mpp version                                                                     DATE: 11-Mar-19          TIME: 17:10:04  
 **********************************************************************************************************************************

 SHA1:             b6b3a4772808bb2d43777f23454e145ddfe12dc3
 **********************************************************************************************************************************

 Variable memory set to 1000000000 words,  buffer space   230000 words

 ZSYMEL=NOSYM
 

Geometry recognized as XYZ

 SETTING NN(1)          =         1.00000000                                  
 SETTING NN(2)          =         2.00000000                                  
 SETTING NN(3)          =         3.00000000                                  
 SETTING BASIS          =    CC-PVDZ


 Recomputing integrals since basis changed


 Using spherical harmonics

 Library entry N      S cc-pVDZ              selected for orbital group  1
 Library entry N      P cc-pVDZ              selected for orbital group  1
 Library entry N      D cc-pVDZ              selected for orbital group  1
 Library entry C      S cc-pVDZ              selected for orbital group  2
 Library entry C      P cc-pVDZ              selected for orbital group  2
 Library entry C      D cc-pVDZ              selected for orbital group  2

1PROGRAM * SEWARD (Integral evaluation for generally contracted gaussian basis sets)     Author: Roland Lindh, 1990

 Geometry written to block  1 of record 700


 Point group  C1  



 ATOMIC COORDINATES

 NR  ATOM    CHARGE       X              Y              Z

   1  N       7.00    1.993600965   -0.359987416    0.000000000
   2  C       6.00   -0.000000000    0.840155072    0.000000000
   3  N       7.00   -1.993600965   -0.359987416    0.000000000

 Bond lengths in Bohr (Angstrom)

 1-2  2.326969446  2-3  2.326969446
     ( 1.231379201)     ( 1.231379201)

 Bond angles

  1-2-3  117.90434194

 NUCLEAR CHARGE:                   20
 NUMBER OF PRIMITIVE AOS:          81
 NUMBER OF SYMMETRY AOS:           78
 NUMBER OF CONTRACTIONS:           42   (  42A   )
 NUMBER OF CORE ORBITALS:           3   (   3A   )
 NUMBER OF VALENCE ORBITALS:       12   (  12A   )


 NUCLEAR REPULSION ENERGY   48.38777411

 EXTRA SYMMETRY OF AOS IN SYMMETRY 1:   1 1 1 1 1 2 1 1 2 1   1 2 1 2 1 1 1 1 1 2   1 1 2 1 1 2 1 2 1 1   1 1 1 2 1 1 2 1 1 2
                                        1 2

 Eigenvalues of metric

         1 0.518E-02 0.932E-02 0.281E-01 0.725E-01 0.727E-01 0.808E-01 0.100E+00 0.113E+00


 Contracted 2-electron integrals neglected if value below      1.0D-11
 AO integral compression algorithm  1   Integral accuracy      1.0D-11

     1.573 MB (compressed) written to integral file ( 42.2%)

     Node minimum: 0.524 MB, node maximum: 0.524 MB


 NUMBER OF SORTED TWO-ELECTRON INTEGRALS:     136353.     BUFFER LENGTH:  32768
 NUMBER OF SEGMENTS:   1  SEGMENT LENGTH:     136353      RECORD LENGTH: 524288

 Memory used in sort:       0.69 MW

 SORT1 READ      544483. AND WROTE       61193. INTEGRALS IN      1 RECORDS. CPU TIME:     0.00 SEC, REAL TIME:     0.00 SEC
 SORT2 READ      187869. AND WROTE      408156. INTEGRALS IN      6 RECORDS. CPU TIME:     0.01 SEC, REAL TIME:     0.01 SEC

 Node minimum:      135751.  Node maximum:      136353. integrals

 OPERATOR DM      FOR CENTER  0  COORDINATES:    0.000000    0.000000    0.000000


 **********************************************************************************************************************************
 DATASETS  * FILE   NREC   LENGTH (MB)   RECORD NAMES
              1      18       19.17       500      610      700      900      950      970     1000      129      960     1100   
                                          VAR    BASINP    GEOM    SYMINP    ZMAT    AOBASIS   BASIS     P2S    ABASIS      S 
                                         1400     1410     1200     1210     1080     1600     1650     1700   
                                           T        V       H0       H01     AOSYM     SMH    MOLCAS    OPER   

 PROGRAMS   *        TOTAL       INT
 CPU TIMES  *         0.32      0.22
 REAL TIME  *         0.79 SEC
 DISK USED  *        13.63 MB      
 GA USED    *         0.00 MB       (max)       0.00 MB       (current)
 **********************************************************************************************************************************

1PROGRAM * RHF-SCF (CLOSED SHELL)       Authors: W. Meyer, H.-J. Werner


 NUMBER OF ELECTRONS:      10+   10-    SPACE SYMMETRY=1    SPIN SYMMETRY: Singlet 
 CONVERGENCE THRESHOLDS:    1.00E-06 (Density)    1.00E-07 (Energy)
 MAX. NUMBER OF ITERATIONS:     1000
 INTERPOLATION TYPE:            DIIS
 INTERPOLATION STEPS:              2 (START)      1 (STEP)
 LEVEL SHIFTS:                  0.00 (CLOSED)  0.00 (OPEN) 



 Orbital guess generated from atomic densities. Full valence occupancy:   15

 Molecular orbital dump at record        2100.2

 Initial occupancy:  10

 ITERATION    DDIFF          GRAD             ENERGY        2-EL.EN.            DIPOLE MOMENTS         DIIS   ORB.
    1      0.000D+00      0.000D+00      -146.53113272    196.268952    0.00000    1.11871   -0.00000    0    start
    2      0.000D+00      0.959D-02      -146.57168089    197.899953    0.00000    0.42006    0.00000    1    diag
    3      0.245D-01      0.564D-02      -146.58430243    197.733492    0.00000    0.63554   -0.00000    2    diag
    4      0.996D-02      0.193D-02      -146.58956842    197.579007    0.00000    0.51811    0.00000    3    diag
    5      0.521D-02      0.105D-02      -146.59135472    197.655098    0.00000    0.47915   -0.00000    4    diag
    6      0.405D-02      0.322D-03      -146.59152009    197.626776    0.00000    0.46023   -0.00000    5    diag
    7      0.132D-02      0.108D-03      -146.59153677    197.628678    0.00000    0.45706   -0.00000    6    diag
    8      0.421D-03      0.355D-04      -146.59153908    197.628826   -0.00000    0.45540   -0.00000    7    diag
    9      0.161D-03      0.114D-04      -146.59153928    197.628647    0.00000    0.45507   -0.00000    8    diag
   10      0.572D-04      0.153D-05      -146.59153928    197.628662   -0.00000    0.45503   -0.00000    9    orth
   11      0.593D-05      0.237D-06      -146.59153928    197.628646    0.00000    0.45503   -0.00000    9    diag
   12      0.740D-06      0.324D-07      -146.59153928    197.628645   -0.00000    0.45503   -0.00000    0    orth

 Final occupancy:  10

 !RHF STATE 1.1 Energy               -146.591539281524
 Nuclear energy                        48.38777411
 One-electron energy                 -293.79363594
 Two-electron energy                   98.81432255
 Virial quotient                       -1.00077764
 !RHF STATE 1.1 Dipole moment          -0.00000000     0.45503143    -0.00000000
 Dipole moment /Debye                  -0.00000000     1.15649879    -0.00000000

 Orbital energies:

         1.1          2.1          3.1          4.1          5.1          6.1          7.1          8.1          9.1         10.1
    -15.680061   -15.680060   -11.355080    -1.345379    -1.141237    -0.675580    -0.620661    -0.606149    -0.550747    -0.427542

        11.1         12.1
      0.017153     0.073705

 HOMO     10.1    -0.427542 =     -11.6340eV
 LUMO     11.1     0.017153 =       0.4668eV
 LUMO-HOMO         0.444695 =      12.1008eV


 **********************************************************************************************************************************
 DATASETS  * FILE   NREC   LENGTH (MB)   RECORD NAMES
              1      18       19.17       500      610      700      900      950      970     1000      129      960     1100   
                                          VAR    BASINP    GEOM    SYMINP    ZMAT    AOBASIS   BASIS     P2S    ABASIS      S 
                                         1400     1410     1200     1210     1080     1600     1650     1700   
                                           T        V       H0       H01     AOSYM     SMH    MOLCAS    OPER   

              2       4        0.44       700     1000      520     2100   
                                         GEOM     BASIS   MCVARS     RHF  

 PROGRAMS   *        TOTAL        HF       INT
 CPU TIMES  *         0.35      0.03      0.22
 REAL TIME  *         0.82 SEC
 DISK USED  *        72.97 MB      
 SF USED    *         0.01 MB      
 GA USED    *         0.00 MB       (max)       0.00 MB       (current)
 **********************************************************************************************************************************


1PROGRAM * MP2 (Closed-shell)     Authors: C. Hampel, H.-J. Werner, 1991, M. Deegan, P.J. Knowles, 1992


 Convergence thresholds:  THRVAR = 1.00D-12  THRDEN = 1.00D-08

 Number of core orbitals:           3 (   3 )
 Number of closed-shell orbitals:   7 (   7 )
 Number of external orbitals:      32 (  32 )

 Molecular orbitals read from record     2100.2  Type=RHF/CANONICAL (state 1.1)

 Number of N-1 electron functions:               7
 Number of N-2 electron functions:              28
 Number of singly external CSFs:               224
 Number of doubly external CSFs:             25200
 Total number of CSFs:                       25425

 Length of J-op  integral file:               0.00 MB
 Length of K-op  integral file:               0.12 MB

 Integral transformation finished. Total CPU:   0.00 sec, npass=  1  Memory used:   0.18 MW

 Memory needed for MP2:                      0.01 MW

 SCS-MP2 correlation energy:           -0.384165803230   (PS=  1.200000  PT=  0.333333)
 SCS-MP2 total energy:               -146.975705084754


  Reference energy                   -146.591539281524
  MP2 singlet pair energy              -0.239862995485
  MP2 triplet pair energy              -0.154816406755
  MP2 correlation energy               -0.394679402240

 !MP2 total energy                   -146.986218683764

 KEXT needed  1 integral passes. Memory used:   0.15 MW  CPU time:      0.00 sec


 Starting Coupled-perturbed Hartree-Fock, convergence threshold= 1.0D-06

 ITER   MIC  DIIS      VAR         VARC       CPU
   1     0     1    0.18D+00    0.17D-02     0.00
   2     7     2    0.17D-02    0.11D-02     0.00
   3     2     3    0.12D-03    0.15D-04     0.00
   4     5     4    0.21D-05    0.80D-06     0.00
   5     1     5    0.33D-06    0.21D-07     0.00

 CPHF convergence reached in  5 macroiterations and   15 microiterations.   Accuracy: 3.2518D-07

 CPHF solution written to record  4101.2

 Dipole moments (unrelaxed):           -0.00000000     0.45640093    -0.00000000
 Orbital relaxation contribution:      -0.00000000     0.19052620    -0.00000000
 !!MP2 STATE 1.1 Dipole moment         -0.00000000     0.64692713    -0.00000000
 Dipole moment /Debye                  -0.00000000     1.64421705    -0.00000000
 
 CPU-time for density and lagrangian:                  0.01 sec
 CPU-time for coupled-perturbed hartree-fock:          0.00 sec

 MP2 Gradient info saved on record         5200.1


 **********************************************************************************************************************************
 DATASETS  * FILE   NREC   LENGTH (MB)   RECORD NAMES
              1      20       20.09       500      610      700      900      950      970     1000      129      960     1100   
                                          VAR    BASINP    GEOM    SYMINP    ZMAT    AOBASIS   BASIS     P2S    ABASIS      S 
                                         1400     1410     1200     1210     1080     1600     1650     1700     1380     5200   
                                           T        V       H0       H01     AOSYM     SMH    MOLCAS    OPER     JKOP      MP2  

              2       6        0.51       700     1000      520     2100     4100     4101   
                                         GEOM     BASIS   MCVARS     RHF     CPHF     CPHF   

 PROGRAMS   *        TOTAL       MP2        HF       INT
 CPU TIMES  *         0.40      0.05      0.03      0.22
 REAL TIME  *         0.89 SEC
 DISK USED  *        75.61 MB      
 SF USED    *         2.41 MB      
 GA USED    *         0.00 MB       (max)       0.00 MB       (current)
 **********************************************************************************************************************************


 PROGRAM * HESSIAN

 Computing numerical hessian using default procedure for command MP2

 Symmetry elements for unique displacements: X  Z  

 Using no symmetry in wavefunction calculations

 Running default procedure: HF-SCF000  MP2
 

 Numerically approximating hessian using central gradient differences
 Task   1   Incrementing variable GX1   by   0.010 AU
 Task   2   Incrementing variable GX1   by  -0.010 AU
 Task   3   Incrementing variable GY1   by   0.010 AU
 Task   4   Incrementing variable GY1   by  -0.010 AU
 Task   5   Incrementing variable GZ1   by   0.010 AU (Skipping negative increment due to symmetry).
 Task   6   Incrementing variable GX2   by   0.010 AU (Skipping negative increment due to symmetry).
 Task   7   Incrementing variable GY2   by   0.010 AU
 Task   8   Incrementing variable GY2   by  -0.010 AU
 Task   9   Incrementing variable GZ2   by   0.010 AU (Skipping negative increment due to symmetry).

 Task list generated. Total number of displacements:      9

 Starting task   1.  CPU=     0.00 sec, Elapsed=     0.00 sec
 Incrementing variable GX1              by  0.005292 ANG   to    1.060260 ANG


 Recomputing integrals since geometry changed

1PROGRAM * SEWARD (Integral evaluation for generally contracted gaussian basis sets)     Author: Roland Lindh, 1990

 Geometry written to block  1 of record 700


 Point group  C1  



 ATOMIC COORDINATES

 NR  ATOM    CHARGE       X              Y              Z

   1  N       7.00    2.003600965   -0.359987416    0.000000000
   2  C       6.00   -0.000000000    0.840155072    0.000000000
   3  N       7.00   -1.993600965   -0.359987416    0.000000000

 Bond lengths in Bohr (Angstrom)

 1-2  2.335542511  2-3  2.326969446
     ( 1.235915872)     ( 1.231379201)

 Bond angles

  1-2-3  118.03086723

 NUCLEAR CHARGE:                   20
 NUMBER OF PRIMITIVE AOS:          81
 NUMBER OF SYMMETRY AOS:           78
 NUMBER OF CONTRACTIONS:           42   (  42A   )
 NUMBER OF CORE ORBITALS:           3   (   3A   )
 NUMBER OF VALENCE ORBITALS:       12   (  12A   )


 NUCLEAR REPULSION ENERGY   48.29077609

 EXTRA SYMMETRY OF AOS IN SYMMETRY 1:   1 1 1 1 1 2 1 1 2 1   1 2 1 2 1 1 1 1 1 2   1 1 2 1 1 2 1 2 1 1   1 1 1 2 1 1 2 1 1 2
                                        1 2

 Eigenvalues of metric

         1 0.519E-02 0.934E-02 0.282E-01 0.727E-01 0.732E-01 0.814E-01 0.101E+00 0.113E+00


 Contracted 2-electron integrals neglected if value below      1.0D-11
 AO integral compression algorithm  1   Integral accuracy      1.0D-11

     1.573 MB (compressed) written to integral file ( 42.3%)

     Node minimum: 0.524 MB, node maximum: 0.524 MB


 NUMBER OF SORTED TWO-ELECTRON INTEGRALS:     136353.     BUFFER LENGTH:  32768
 NUMBER OF SEGMENTS:   1  SEGMENT LENGTH:     136353      RECORD LENGTH: 524288

 Memory used in sort:       0.69 MW

 SORT1 READ      544483. AND WROTE       61337. INTEGRALS IN      1 RECORDS. CPU TIME:     0.01 SEC, REAL TIME:     0.01 SEC
 SORT2 READ      188301. AND WROTE      408156. INTEGRALS IN      6 RECORDS. CPU TIME:     0.00 SEC, REAL TIME:     0.01 SEC

 Node minimum:      135751.  Node maximum:      136353. integrals

 OPERATOR DM      FOR CENTER  0  COORDINATES:    0.000000    0.000000    0.000000
1PROGRAM * RHF-SCF (CLOSED SHELL)       Authors: W. Meyer, H.-J. Werner


 NUMBER OF ELECTRONS:      10+   10-    SPACE SYMMETRY=1    SPIN SYMMETRY: Singlet 
 CONVERGENCE THRESHOLDS:    1.00E-07 (Density)    1.00E-08 (Energy)
 MAX. NUMBER OF ITERATIONS:     1000
 INTERPOLATION TYPE:            DIIS
 INTERPOLATION STEPS:              2 (START)      1 (STEP)
 LEVEL SHIFTS:                  0.00 (CLOSED)  0.00 (OPEN) 

 Number of closed-shell orbitals:   10 (  10 )


 Molecular orbitals read from record     2100.2  Type=RHF/CANONICAL (state 1.1)

 Molecular orbital dump at record        2100.1

 ITERATION    DDIFF          GRAD             ENERGY        2-EL.EN.            DIPOLE MOMENTS         DIIS   ORB.
    1      0.000D+00      0.000D+00      -146.59163206    197.465154   -0.00071    0.45440   -0.00000    0    start
    2      0.000D+00      0.182D-03      -146.59165003    197.435507    0.00392    0.45307   -0.00000    1    diag
    3      0.429D-03      0.756D-04      -146.59165375    197.442159   -0.00068    0.45188   -0.00000    2    diag
    4      0.187D-03      0.435D-04      -146.59165549    197.442589    0.00230    0.45147   -0.00000    3    diag
    5      0.974D-04      0.211D-04      -146.59165618    197.441331    0.00199    0.45107   -0.00000    4    diag
    6      0.733D-04      0.877D-05      -146.59165636    197.441779    0.00240    0.45082   -0.00000    5    diag
    7      0.498D-04      0.206D-05      -146.59165636    197.441757    0.00246    0.45084   -0.00000    6    diag
    8      0.730D-05      0.103D-05      -146.59165636    197.441704    0.00251    0.45080   -0.00000    7    orth
    9      0.304D-05      0.578D-06      -146.59165636    197.441716    0.00253    0.45081    0.00000    8    diag
   10      0.214D-05      0.196D-06      -146.59165636    197.441716    0.00254    0.45081    0.00000    9    diag
   11      0.846D-06      0.602D-07      -146.59165636    197.441716    0.00254    0.45081    0.00000    9    diag
   12      0.256D-06      0.185D-07      -146.59165636    197.441717    0.00255    0.45081    0.00000    9    diag
   13      0.805D-07      0.426D-08      -146.59165636    197.441716    0.00255    0.45081    0.00000    0    orth

 Final occupancy:  10

 !RHF STATE 1.1 Energy               -146.591656364016
 Nuclear energy                        48.29077609
 One-electron energy                 -293.60329067
 Two-electron energy                   98.72085822
 Virial quotient                       -1.00090211
 !RHF STATE 1.1 Dipole moment           0.00254549     0.45081002     0.00000000
 Dipole moment /Debye                   0.00646956     1.14576973     0.00000000

 Orbital energies:

         1.1          2.1          3.1          4.1          5.1          6.1          7.1          8.1          9.1         10.1
    -15.681133   -15.680232   -11.355603    -1.343696    -1.140773    -0.675899    -0.619720    -0.606029    -0.549863    -0.427839

        11.1         12.1
      0.016371     0.073491

 HOMO     10.1    -0.427839 =     -11.6421eV
 LUMO     11.1     0.016371 =       0.4455eV
 LUMO-HOMO         0.444210 =      12.0876eV


 **********************************************************************************************************************************
 DATASETS  * FILE   NREC   LENGTH (MB)   RECORD NAMES
              1      19       19.35       500      610      700      900      950      970     1000      129      960     1100   
                                          VAR    BASINP    GEOM    SYMINP    ZMAT    AOBASIS   BASIS     P2S    ABASIS      S 
                                         1400     1410     1200     1210     1080     1600     1650     1700     2100   
                                           T        V       H0       H01     AOSYM     SMH    MOLCAS    OPER      RHF  

              2       7        0.51       700     1000      520     2100     4100     4101     5500   
                                         GEOM     BASIS   MCVARS     RHF     CPHF     CPHF     HINFO   

 PROGRAMS   *        TOTAL        HF       MP2        HF       INT
 CPU TIMES  *         0.59      0.18      0.05      0.03      0.22
 REAL TIME  *         1.12 SEC
 DISK USED  *        75.61 MB      
 SF USED    *         2.41 MB      
 GA USED    *         0.00 MB       (max)       0.00 MB       (current)
 **********************************************************************************************************************************


1PROGRAM * MP2 (Closed-shell)     Authors: C. Hampel, H.-J. Werner, 1991, M. Deegan, P.J. Knowles, 1992


 Convergence thresholds:  THRVAR = 1.00D-12  THRDEN = 1.00D-08

 Number of core orbitals:           3 (   3 )
 Number of closed-shell orbitals:   7 (   7 )
 Number of external orbitals:      32 (  32 )

 Molecular orbitals read from record     2100.1  Type=RHF/CANONICAL (state 1.1)

 Number of N-1 electron functions:               7
 Number of N-2 electron functions:              28
 Number of singly external CSFs:               224
 Number of doubly external CSFs:             25200
 Total number of CSFs:                       25425

 Length of J-op  integral file:               0.00 MB
 Length of K-op  integral file:               0.12 MB

 Integral transformation finished. Total CPU:   0.01 sec, npass=  1  Memory used:   0.18 MW

 Memory needed for MP2:                      0.01 MW

 SCS-MP2 correlation energy:           -0.384451023600   (PS=  1.200000  PT=  0.333333)
 SCS-MP2 total energy:               -146.976107387616


  Reference energy                   -146.591656364016
  MP2 singlet pair energy              -0.240052216246
  MP2 triplet pair energy              -0.154909870882
  MP2 correlation energy               -0.394962087129

 !MP2 total energy                   -146.986618451145

 KEXT needed  1 integral passes. Memory used:   0.15 MW  CPU time:      0.00 sec


 CPHF trial vector read from record  4101.2

 Starting Coupled-perturbed Hartree-Fock, convergence threshold= 1.0D-06

 ITER   MIC  DIIS      VAR         VARC       CPU
   1     0     1    0.62D-02    0.32D-04     0.00
   2     9     2    0.23D-04    0.23D-04     0.00
   3     1     3    0.28D-05    0.26D-06     0.00
   4     1     4    0.51D-06    0.16D-07     0.00

 CPHF convergence reached in  4 macroiterations and   11 microiterations.   Accuracy: 5.1248D-07

 Dipole moments (unrelaxed):            0.00236752     0.45226738     0.00000000
 Orbital relaxation contribution:      -0.00073547     0.19231135    -0.00000000
 !!MP2 STATE 1.1 Dipole moment          0.00163205     0.64457872     0.00000000
 Dipole moment /Debye                   0.00414798     1.63824840     0.00000000
 
 CPU-time for density and lagrangian:                  0.01 sec
 CPU-time for coupled-perturbed hartree-fock:          0.00 sec

 MP2 Gradient info saved on record         5200.1


 **********************************************************************************************************************************
 DATASETS  * FILE   NREC   LENGTH (MB)   RECORD NAMES
              1      21       20.27       500      610      700      900      950      970     1000      129      960     1100   
                                          VAR    BASINP    GEOM    SYMINP    ZMAT    AOBASIS   BASIS     P2S    ABASIS      S 
                                         1400     1410     1200     1210     1080     1600     1650     1700     2100     1380   
                                           T        V       H0       H01     AOSYM     SMH    MOLCAS    OPER      RHF     JKOP   
                                         5200   
                                          MP2  

              2       7        0.51       700     1000      520     2100     4100     4101     5500   
                                         GEOM     BASIS   MCVARS     RHF     CPHF     CPHF     HINFO   

 PROGRAMS   *        TOTAL       MP2       MP2        HF       INT
 CPU TIMES  *         0.64      0.04      0.05      0.03      0.22
 REAL TIME  *         1.18 SEC
 DISK USED  *        76.18 MB      
 SF USED    *         2.41 MB      
 GA USED    *         0.00 MB       (max)       0.00 MB       (current)
 **********************************************************************************************************************************
1PROGRAM * ALASKA (Gradient of the energy)     Author: R. Lindh


 MP2      Gradient info restored from record    5200.1

 Number of core orbitals:           3 (   3 )
 Number of closed-shell orbitals:   7 (   7 )
 Number of external orbitals:      32 (  32 )

 Integral thresholds in T2TRAN:            1.0D-10 (PROD)

 Available memory for Transformation: 997885545 words
 Memory needed for incore algorithm:      98465 words
 Minimum memory needed:                   36725 words

 Memory used for transformation:           0.10 MW
 Available memory for gradients:         999.79 MW

 CPU for transformation:                   0.04 sec
 CPU for integrals and gradient:           0.99 sec
 Total CPU:                                1.03 sec

 Prescreening statistics:
 ========================

 Total number of shell quadruplets:        4.78D+02
 Number of shell quadruplets processed:    4.78D+02 (100.00%)

 MP2 GRADIENT FOR STATE 1.1

 Atom          dE/dx               dE/dy               dE/dz

   1        -0.037052507        -0.019399229         0.000000000
   2        -0.003918725         0.036536676         0.000000000
   3         0.040971232        -0.017137446        -0.000000000

 Nuclear force contribution to virial =        -0.112069508
 Starting task   2.  CPU=     3.18 sec, Elapsed=     3.25 sec
 Incrementing variable GX1              by -0.005292 ANG   to    1.049676 ANG


 Recomputing integrals since geometry changed

1PROGRAM * SEWARD (Integral evaluation for generally contracted gaussian basis sets)     Author: Roland Lindh, 1990

 Geometry written to block  1 of record 700


 Point group  C1  



 ATOMIC COORDINATES

 NR  ATOM    CHARGE       X              Y              Z

   1  N       7.00    1.983600965   -0.359987416    0.000000000
   2  C       6.00   -0.000000000    0.840155072    0.000000000
   3  N       7.00   -1.993600965   -0.359987416    0.000000000

 Bond lengths in Bohr (Angstrom)

 1-2  2.318407812  2-3  2.326969446
     ( 1.226848580)     ( 1.231379201)

 Bond angles

  1-2-3  117.77688154

 NUCLEAR CHARGE:                   20
 NUMBER OF PRIMITIVE AOS:          81
 NUMBER OF SYMMETRY AOS:           78
 NUMBER OF CONTRACTIONS:           42   (  42A   )
 NUMBER OF CORE ORBITALS:           3   (   3A   )
 NUMBER OF VALENCE ORBITALS:       12   (  12A   )


 NUCLEAR REPULSION ENERGY   48.48532740

 EXTRA SYMMETRY OF AOS IN SYMMETRY 1:   1 1 1 1 1 2 1 1 2 1   1 2 1 2 1 1 1 1 1 2   1 1 2 1 1 2 1 2 1 1   1 1 1 2 1 1 2 1 1 2
                                        1 2

 Eigenvalues of metric

         1 0.516E-02 0.929E-02 0.279E-01 0.721E-01 0.724E-01 0.803E-01 0.100E+00 0.113E+00


 Contracted 2-electron integrals neglected if value below      1.0D-11
 AO integral compression algorithm  1   Integral accuracy      1.0D-11

     1.573 MB (compressed) written to integral file ( 42.3%)

     Node minimum: 0.524 MB, node maximum: 0.524 MB


 NUMBER OF SORTED TWO-ELECTRON INTEGRALS:     136353.     BUFFER LENGTH:  32768
 NUMBER OF SEGMENTS:   1  SEGMENT LENGTH:     136353      RECORD LENGTH: 524288

 Memory used in sort:       0.69 MW

 SORT1 READ      544483. AND WROTE       61337. INTEGRALS IN      1 RECORDS. CPU TIME:     0.00 SEC, REAL TIME:     0.01 SEC
 SORT2 READ      188301. AND WROTE      408156. INTEGRALS IN      6 RECORDS. CPU TIME:     0.01 SEC, REAL TIME:     0.01 SEC

 Node minimum:      135751.  Node maximum:      136353. integrals

 OPERATOR DM      FOR CENTER  0  COORDINATES:    0.000000    0.000000    0.000000
1PROGRAM * RHF-SCF (CLOSED SHELL)       Authors: W. Meyer, H.-J. Werner


 NUMBER OF ELECTRONS:      10+   10-    SPACE SYMMETRY=1    SPIN SYMMETRY: Singlet 
 CONVERGENCE THRESHOLDS:    1.00E-07 (Density)    1.00E-08 (Energy)
 MAX. NUMBER OF ITERATIONS:     1000
 INTERPOLATION TYPE:            DIIS
 INTERPOLATION STEPS:              2 (START)      1 (STEP)
 LEVEL SHIFTS:                  0.00 (CLOSED)  0.00 (OPEN) 

 Number of closed-shell orbitals:   10 (  10 )


 Molecular orbitals read from record     2100.2  Type=RHF/CANONICAL (state 1.1)

 Molecular orbital dump at record        2100.1

 ITERATION    DDIFF          GRAD             ENERGY        2-EL.EN.            DIPOLE MOMENTS         DIIS   ORB.
    1      0.000D+00      0.000D+00      -146.59134473    197.792794    0.00072    0.45566   -0.00000    0    start
    2      0.000D+00      0.183D-03      -146.59136284    197.822867   -0.00387    0.45699    0.00000    1    diag
    3      0.429D-03      0.760D-04      -146.59136657    197.816105    0.00073    0.45818    0.00000    2    diag
    4      0.187D-03      0.436D-04      -146.59136830    197.815740   -0.00221    0.45860   -0.00000    3    diag
    5      0.976D-04      0.211D-04      -146.59136899    197.817016   -0.00189    0.45899   -0.00000    4    diag
    6      0.732D-04      0.876D-05      -146.59136917    197.816588   -0.00229    0.45926   -0.00000    5    diag
    7      0.494D-04      0.208D-05      -146.59136917    197.816608   -0.00236    0.45923    0.00000    6    diag
    8      0.725D-05      0.103D-05      -146.59136917    197.816664   -0.00240    0.45927    0.00000    7    orth
    9      0.306D-05      0.574D-06      -146.59136917    197.816652   -0.00242    0.45927    0.00000    8    diag
   10      0.213D-05      0.192D-06      -146.59136917    197.816652   -0.00243    0.45927    0.00000    9    diag
   11      0.835D-06      0.585D-07      -146.59136917    197.816652   -0.00243    0.45927   -0.00000    9    diag
   12      0.247D-06      0.179D-07      -146.59136917    197.816652   -0.00244    0.45927   -0.00000    9    diag
   13      0.771D-07      0.403D-08      -146.59136917    197.816652   -0.00244    0.45927   -0.00000    0    orth

 Final occupancy:  10

 !RHF STATE 1.1 Energy               -146.591369174191
 Nuclear energy                        48.48532740
 One-electron energy                 -293.98502264
 Two-electron energy                   98.90832607
 Virial quotient                       -1.00065051
 !RHF STATE 1.1 Dipole moment          -0.00243535     0.45926843    -0.00000000
 Dipole moment /Debye                  -0.00618963     1.16726746    -0.00000000

 Orbital energies:

         1.1          2.1          3.1          4.1          5.1          6.1          7.1          8.1          9.1         10.1
    -15.679881   -15.678981   -11.354546    -1.347079    -1.141685    -0.675255    -0.621608    -0.606262    -0.551640    -0.427249

        11.1         12.1
      0.017948     0.073919

 HOMO     10.1    -0.427249 =     -11.6260eV
 LUMO     11.1     0.017948 =       0.4884eV
 LUMO-HOMO         0.445198 =      12.1144eV


 **********************************************************************************************************************************
 DATASETS  * FILE   NREC   LENGTH (MB)   RECORD NAMES
              1      19       19.35       500      610      700      900      950      970     1000      129      960     1100   
                                          VAR    BASINP    GEOM    SYMINP    ZMAT    AOBASIS   BASIS     P2S    ABASIS      S 
                                         1400     1410     1200     1210     1080     1600     1650     1700     2100   
                                           T        V       H0       H01     AOSYM     SMH    MOLCAS    OPER      RHF  

              2       8        0.52       700     1000      520     2100     4100     4101     5500     9001   
                                         GEOM     BASIS   MCVARS     RHF     CPHF     CPHF     HINFO   DEN_MP2    

 PROGRAMS   *        TOTAL        HF       MP2        HF       INT
 CPU TIMES  *         2.53      0.17      0.05      0.03      0.22
 REAL TIME  *         4.35 SEC
 DISK USED  *        76.18 MB      
 SF USED    *         2.41 MB      
 GA USED    *         0.00 MB       (max)       0.00 MB       (current)
 **********************************************************************************************************************************


1PROGRAM * MP2 (Closed-shell)     Authors: C. Hampel, H.-J. Werner, 1991, M. Deegan, P.J. Knowles, 1992


 Convergence thresholds:  THRVAR = 1.00D-12  THRDEN = 1.00D-08

 Number of core orbitals:           3 (   3 )
 Number of closed-shell orbitals:   7 (   7 )
 Number of external orbitals:      32 (  32 )

 Molecular orbitals read from record     2100.1  Type=RHF/CANONICAL (state 1.1)

 Number of N-1 electron functions:               7
 Number of N-2 electron functions:              28
 Number of singly external CSFs:               224
 Number of doubly external CSFs:             25200
 Total number of CSFs:                       25425

 Length of J-op  integral file:               0.00 MB
 Length of K-op  integral file:               0.12 MB

 Integral transformation finished. Total CPU:   0.00 sec, npass=  1  Memory used:   0.18 MW

 Memory needed for MP2:                      0.01 MW

 SCS-MP2 correlation energy:           -0.383875164200   (PS=  1.200000  PT=  0.333333)
 SCS-MP2 total energy:               -146.975244338391


  Reference energy                   -146.591369174191
  MP2 singlet pair energy              -0.239671626529
  MP2 triplet pair energy              -0.154718377016
  MP2 correlation energy               -0.394390003545

 !MP2 total energy                   -146.985759177736

 KEXT needed  1 integral passes. Memory used:   0.15 MW  CPU time:      0.01 sec


 CPHF trial vector read from record  4101.2

 Starting Coupled-perturbed Hartree-Fock, convergence threshold= 1.0D-06

 ITER   MIC  DIIS      VAR         VARC       CPU
   1     0     1    0.63D-02    0.33D-04     0.00
   2     9     2    0.23D-04    0.23D-04     0.01
   3     1     3    0.28D-05    0.27D-06     0.01
   4     1     4    0.53D-06    0.16D-07     0.01

 CPHF convergence reached in  4 macroiterations and   11 microiterations.   Accuracy: 5.2531D-07

 Dipole moments (unrelaxed):           -0.00226063     0.46054679    -0.00000000
 Orbital relaxation contribution:       0.00075993     0.18868979    -0.00000000
 !!MP2 STATE 1.1 Dipole moment         -0.00150070     0.64923658    -0.00000000
 Dipole moment /Debye                  -0.00381414     1.65008671    -0.00000000
 
 CPU-time for density and lagrangian:                  0.00 sec
 CPU-time for coupled-perturbed hartree-fock:          0.01 sec

 MP2 Gradient info saved on record         5200.1


 **********************************************************************************************************************************
 DATASETS  * FILE   NREC   LENGTH (MB)   RECORD NAMES
              1      21       20.27       500      610      700      900      950      970     1000      129      960     1100   
                                          VAR    BASINP    GEOM    SYMINP    ZMAT    AOBASIS   BASIS     P2S    ABASIS      S 
                                         1400     1410     1200     1210     1080     1600     1650     1700     2100     1380   
                                           T        V       H0       H01     AOSYM     SMH    MOLCAS    OPER      RHF     JKOP   
                                         5200   
                                          MP2  

              2       8        0.52       700     1000      520     2100     4100     4101     5500     9001   
                                         GEOM     BASIS   MCVARS     RHF     CPHF     CPHF     HINFO   DEN_MP2    

 PROGRAMS   *        TOTAL       MP2       MP2        HF       INT
 CPU TIMES  *         2.58      0.06      0.05      0.03      0.22
 REAL TIME  *         4.41 SEC
 DISK USED  *        76.20 MB      
 SF USED    *         2.41 MB      
 GA USED    *         0.00 MB       (max)       0.00 MB       (current)
 **********************************************************************************************************************************
1PROGRAM * ALASKA (Gradient of the energy)     Author: R. Lindh


 MP2      Gradient info restored from record    5200.1

 Number of core orbitals:           3 (   3 )
 Number of closed-shell orbitals:   7 (   7 )
 Number of external orbitals:      32 (  32 )

 Integral thresholds in T2TRAN:            1.0D-10 (PROD)

 Available memory for Transformation: 997885545 words
 Memory needed for incore algorithm:      98465 words
 Minimum memory needed:                   36725 words

 Memory used for transformation:           0.10 MW
 Available memory for gradients:         999.79 MW

 CPU for transformation:                   0.07 sec
 CPU for integrals and gradient:           0.99 sec
 Total CPU:                                1.06 sec

 Prescreening statistics:
 ========================

 Total number of shell quadruplets:        4.78D+02
 Number of shell quadruplets processed:    4.78D+02 (100.00%)

 MP2 GRADIENT FOR STATE 1.1

 Atom          dE/dx               dE/dy               dE/dz

   1        -0.049004329        -0.013154049         0.000000000
   2         0.004110512         0.028716652        -0.000000000
   3         0.044893817        -0.015562603         0.000000000

 Nuclear force contribution to virial =        -0.152241318
 Starting task   3.  CPU=     5.45 sec, Elapsed=     5.52 sec
 Incrementing variable GY1              by  0.005292 ANG   to   -0.185205 ANG


 Recomputing integrals since geometry changed

1PROGRAM * SEWARD (Integral evaluation for generally contracted gaussian basis sets)     Author: Roland Lindh, 1990

 Geometry written to block  1 of record 700


 Point group  C1  



 ATOMIC COORDINATES

 NR  ATOM    CHARGE       X              Y              Z

   1  N       7.00    1.993600965   -0.349987416    0.000000000
   2  C       6.00   -0.000000000    0.840155072    0.000000000
   3  N       7.00   -1.993600965   -0.359987416    0.000000000

 Bond lengths in Bohr (Angstrom)

 1-2  2.321827718  2-3  2.326969446
     ( 1.228658316)     ( 1.231379201)

 Bond angles

  1-2-3  118.11575956

 NUCLEAR CHARGE:                   20
 NUMBER OF PRIMITIVE AOS:          81
 NUMBER OF SYMMETRY AOS:           78
 NUMBER OF CONTRACTIONS:           42   (  42A   )
 NUMBER OF CORE ORBITALS:           3   (   3A   )
 NUMBER OF VALENCE ORBITALS:       12   (  12A   )


 NUCLEAR REPULSION ENERGY   48.42770578

 EXTRA SYMMETRY OF AOS IN SYMMETRY 1:   1 1 1 1 1 2 1 1 2 1   1 2 1 2 1 1 1 1 1 2   1 1 2 1 1 2 1 2 1 1   1 1 1 2 1 1 2 1 1 2
                                        1 2

 Eigenvalues of metric

         1 0.517E-02 0.928E-02 0.280E-01 0.722E-01 0.724E-01 0.805E-01 0.100E+00 0.112E+00


 Contracted 2-electron integrals neglected if value below      1.0D-11
 AO integral compression algorithm  1   Integral accuracy      1.0D-11

     1.573 MB (compressed) written to integral file ( 46.7%)

     Node minimum: 0.524 MB, node maximum: 0.524 MB


 NUMBER OF SORTED TWO-ELECTRON INTEGRALS:     136353.     BUFFER LENGTH:  32768
 NUMBER OF SEGMENTS:   1  SEGMENT LENGTH:     136353      RECORD LENGTH: 524288

 Memory used in sort:       0.69 MW

 SORT1 READ      544483. AND WROTE       67518. INTEGRALS IN      1 RECORDS. CPU TIME:     0.01 SEC, REAL TIME:     0.01 SEC
 SORT2 READ      205875. AND WROTE      408156. INTEGRALS IN      6 RECORDS. CPU TIME:     0.00 SEC, REAL TIME:     0.01 SEC

 Node minimum:      135751.  Node maximum:      136353. integrals

 OPERATOR DM      FOR CENTER  0  COORDINATES:    0.000000    0.000000    0.000000
1PROGRAM * RHF-SCF (CLOSED SHELL)       Authors: W. Meyer, H.-J. Werner


 NUMBER OF ELECTRONS:      10+   10-    SPACE SYMMETRY=1    SPIN SYMMETRY: Singlet 
 CONVERGENCE THRESHOLDS:    1.00E-07 (Density)    1.00E-08 (Energy)
 MAX. NUMBER OF ITERATIONS:     1000
 INTERPOLATION TYPE:            DIIS
 INTERPOLATION STEPS:              2 (START)      1 (STEP)
 LEVEL SHIFTS:                  0.00 (CLOSED)  0.00 (OPEN) 

 Number of closed-shell orbitals:   10 (  10 )


 Molecular orbitals read from record     2100.2  Type=RHF/CANONICAL (state 1.1)

 Molecular orbital dump at record        2100.1

 ITERATION    DDIFF          GRAD             ENERGY        2-EL.EN.            DIPOLE MOMENTS         DIIS   ORB.
    1      0.000D+00      0.000D+00      -146.59183820    197.689588    0.00068    0.45477   -0.00000    0    start
    2      0.000D+00      0.149D-03      -146.59184938    197.707655   -0.00246    0.45515    0.00000    1    diag
    3      0.304D-03      0.540D-04      -146.59185152    197.703128    0.00056    0.45549    0.00000    2    diag
    4      0.138D-03      0.333D-04      -146.59185238    197.703370   -0.00190    0.45543   -0.00000    3    diag
    5      0.662D-04      0.158D-04      -146.59185277    197.704213   -0.00195    0.45537   -0.00000    4    diag
    6      0.519D-04      0.720D-05      -146.59185289    197.703762   -0.00251    0.45527    0.00000    5    diag
    7      0.412D-04      0.189D-05      -146.59185290    197.703817   -0.00260    0.45521    0.00000    6    diag
    8      0.740D-05      0.818D-06      -146.59185290    197.703844   -0.00263    0.45523   -0.00000    7    orth
    9      0.244D-05      0.367D-06      -146.59185290    197.703827   -0.00264    0.45522   -0.00000    8    diag
   10      0.116D-05      0.106D-06      -146.59185290    197.703828   -0.00265    0.45522   -0.00000    9    diag
   11      0.441D-06      0.369D-07      -146.59185290    197.703829   -0.00265    0.45522    0.00000    9    diag
   12      0.131D-06      0.137D-07      -146.59185290    197.703828   -0.00265    0.45522   -0.00000    9    diag
   13      0.613D-07      0.428D-08      -146.59185290    197.703829   -0.00265    0.45522   -0.00000    0    orth

 Final occupancy:  10

 !RHF STATE 1.1 Energy               -146.591852900136
 Nuclear energy                        48.42770578
 One-electron energy                 -293.87147298
 Two-electron energy                   98.85191429
 Virial quotient                       -1.00071516
 !RHF STATE 1.1 Dipole moment          -0.00264777     0.45521987    -0.00000000
 Dipole moment /Debye                  -0.00672953     1.15697771    -0.00000000

 Orbital energies:

         1.1          2.1          3.1          4.1          5.1          6.1          7.1          8.1          9.1         10.1
    -15.680054   -15.679510   -11.354691    -1.345919    -1.142093    -0.675342    -0.621128    -0.606378    -0.551139    -0.427567

        11.1         12.1
      0.016821     0.074681

 HOMO     10.1    -0.427567 =     -11.6347eV
 LUMO     11.1     0.016821 =       0.4577eV
 LUMO-HOMO         0.444389 =      12.0924eV


 **********************************************************************************************************************************
 DATASETS  * FILE   NREC   LENGTH (MB)   RECORD NAMES
              1      19       19.35       500      610      700      900      950      970     1000      129      960     1100   
                                          VAR    BASINP    GEOM    SYMINP    ZMAT    AOBASIS   BASIS     P2S    ABASIS      S 
                                         1400     1410     1200     1210     1080     1600     1650     1700     2100   
                                           T        V       H0       H01     AOSYM     SMH    MOLCAS    OPER      RHF  

              2       8        0.52       700     1000      520     2100     4100     4101     5500     9001   
                                         GEOM     BASIS   MCVARS     RHF     CPHF     CPHF     HINFO   DEN_MP2    

 PROGRAMS   *        TOTAL        HF       MP2        HF       INT
 CPU TIMES  *         4.74      0.17      0.05      0.03      0.22
 REAL TIME  *         6.61 SEC
 DISK USED  *        76.27 MB      
 SF USED    *         2.41 MB      
 GA USED    *         0.00 MB       (max)       0.00 MB       (current)
 **********************************************************************************************************************************


1PROGRAM * MP2 (Closed-shell)     Authors: C. Hampel, H.-J. Werner, 1991, M. Deegan, P.J. Knowles, 1992


 Convergence thresholds:  THRVAR = 1.00D-12  THRDEN = 1.00D-08

 Number of core orbitals:           3 (   3 )
 Number of closed-shell orbitals:   7 (   7 )
 Number of external orbitals:      32 (  32 )

 Molecular orbitals read from record     2100.1  Type=RHF/CANONICAL (state 1.1)

 Number of N-1 electron functions:               7
 Number of N-2 electron functions:              28
 Number of singly external CSFs:               224
 Number of doubly external CSFs:             25200
 Total number of CSFs:                       25425

 Length of J-op  integral file:               0.00 MB
 Length of K-op  integral file:               0.12 MB

 Integral transformation finished. Total CPU:   0.00 sec, npass=  1  Memory used:   0.18 MW

 Memory needed for MP2:                      0.01 MW

 SCS-MP2 correlation energy:           -0.384003608406   (PS=  1.200000  PT=  0.333333)
 SCS-MP2 total energy:               -146.975856508542


  Reference energy                   -146.591852900136
  MP2 singlet pair energy              -0.239753630158
  MP2 triplet pair energy              -0.154766655348
  MP2 correlation energy               -0.394520285506

 !MP2 total energy                   -146.986373185642

 KEXT needed  1 integral passes. Memory used:   0.15 MW  CPU time:      0.00 sec


 CPHF trial vector read from record  4101.2

 Starting Coupled-perturbed Hartree-Fock, convergence threshold= 1.0D-06

 ITER   MIC  DIIS      VAR         VARC       CPU
   1     0     1    0.47D-02    0.31D-04     0.01
   2     8     2    0.15D-04    0.15D-04     0.01
   3     2     3    0.14D-05    0.22D-06     0.01
   4     1     4    0.32D-06    0.88D-08     0.01

 CPHF convergence reached in  4 macroiterations and   11 microiterations.   Accuracy: 3.1874D-07

 Dipole moments (unrelaxed):           -0.00254389     0.45658164    -0.00000000
 Orbital relaxation contribution:      -0.00001344     0.18934321     0.00000000
 !!MP2 STATE 1.1 Dipole moment         -0.00255733     0.64592485     0.00000000
 Dipole moment /Debye                  -0.00649966     1.64166967     0.00000000
 
 CPU-time for density and lagrangian:                  0.00 sec
 CPU-time for coupled-perturbed hartree-fock:          0.01 sec

 MP2 Gradient info saved on record         5200.1


 **********************************************************************************************************************************
 DATASETS  * FILE   NREC   LENGTH (MB)   RECORD NAMES
              1      21       20.27       500      610      700      900      950      970     1000      129      960     1100   
                                          VAR    BASINP    GEOM    SYMINP    ZMAT    AOBASIS   BASIS     P2S    ABASIS      S 
                                         1400     1410     1200     1210     1080     1600     1650     1700     2100     1380   
                                           T        V       H0       H01     AOSYM     SMH    MOLCAS    OPER      RHF     JKOP   
                                         5200   
                                          MP2  

              2       8        0.52       700     1000      520     2100     4100     4101     5500     9001   
                                         GEOM     BASIS   MCVARS     RHF     CPHF     CPHF     HINFO   DEN_MP2    

 PROGRAMS   *        TOTAL       MP2       MP2        HF       INT
 CPU TIMES  *         4.79      0.04      0.05      0.03      0.22
 REAL TIME  *         6.67 SEC
 DISK USED  *        76.27 MB      
 SF USED    *         2.41 MB      
 GA USED    *         0.00 MB       (max)       0.00 MB       (current)
 **********************************************************************************************************************************
1PROGRAM * ALASKA (Gradient of the energy)     Author: R. Lindh


 MP2      Gradient info restored from record    5200.1

 Number of core orbitals:           3 (   3 )
 Number of closed-shell orbitals:   7 (   7 )
 Number of external orbitals:      32 (  32 )

 Integral thresholds in T2TRAN:            1.0D-10 (PROD)

 Available memory for Transformation: 997885545 words
 Memory needed for incore algorithm:      98465 words
 Minimum memory needed:                   36725 words

 Memory used for transformation:           0.10 MW
 Available memory for gradients:         999.79 MW

 CPU for transformation:                   0.05 sec
 CPU for integrals and gradient:           0.99 sec
 Total CPU:                                1.04 sec

 Prescreening statistics:
 ========================

 Total number of shell quadruplets:        4.36D+02
 Number of shell quadruplets processed:    4.36D+02 (100.00%)

 MP2 GRADIENT FOR STATE 1.1

 Atom          dE/dx               dE/dy               dE/dz

   1        -0.046088562        -0.014554639        -0.000000000
   2         0.002373240         0.030306769         0.000000000
   3         0.043715323        -0.015752130         0.000000000

 Nuclear force contribution to virial =        -0.142806217
 Starting task   4.  CPU=     7.71 sec, Elapsed=     7.78 sec
 Incrementing variable GY1              by -0.005292 ANG   to   -0.195789 ANG


 Recomputing integrals since geometry changed

1PROGRAM * SEWARD (Integral evaluation for generally contracted gaussian basis sets)     Author: Roland Lindh, 1990

 Geometry written to block  1 of record 700


 Point group  C1  



 ATOMIC COORDINATES

 NR  ATOM    CHARGE       X              Y              Z

   1  N       7.00    1.993600965   -0.369987416    0.000000000
   2  C       6.00   -0.000000000    0.840155072    0.000000000
   3  N       7.00   -1.993600965   -0.359987416    0.000000000

 Bond lengths in Bohr (Angstrom)

 1-2  2.332142717  2-3  2.326969446
     ( 1.234116778)     ( 1.231379201)

 Bond angles

  1-2-3  117.69385942

 NUCLEAR CHARGE:                   20
 NUMBER OF PRIMITIVE AOS:          81
 NUMBER OF SYMMETRY AOS:           78
 NUMBER OF CONTRACTIONS:           42   (  42A   )
 NUMBER OF CORE ORBITALS:           3   (   3A   )
 NUMBER OF VALENCE ORBITALS:       12   (  12A   )


 NUCLEAR REPULSION ENERGY   48.34769780

 EXTRA SYMMETRY OF AOS IN SYMMETRY 1:   1 1 1 1 1 2 1 1 2 1   1 2 1 2 1 1 1 1 1 2   1 1 2 1 1 2 1 2 1 1   1 1 1 2 1 1 2 1 1 2
                                        1 2

 Eigenvalues of metric

         1 0.518E-02 0.936E-02 0.282E-01 0.726E-01 0.732E-01 0.812E-01 0.101E+00 0.113E+00


 Contracted 2-electron integrals neglected if value below      1.0D-11
 AO integral compression algorithm  1   Integral accuracy      1.0D-11

     1.573 MB (compressed) written to integral file ( 46.7%)

     Node minimum: 0.524 MB, node maximum: 0.524 MB


 NUMBER OF SORTED TWO-ELECTRON INTEGRALS:     136353.     BUFFER LENGTH:  32768
 NUMBER OF SEGMENTS:   1  SEGMENT LENGTH:     136353      RECORD LENGTH: 524288

 Memory used in sort:       0.69 MW

 SORT1 READ      544483. AND WROTE       67518. INTEGRALS IN      1 RECORDS. CPU TIME:     0.00 SEC, REAL TIME:     0.01 SEC
 SORT2 READ      205875. AND WROTE      408156. INTEGRALS IN      6 RECORDS. CPU TIME:     0.01 SEC, REAL TIME:     0.01 SEC

 Node minimum:      135751.  Node maximum:      136353. integrals

 OPERATOR DM      FOR CENTER  0  COORDINATES:    0.000000    0.000000    0.000000
1PROGRAM * RHF-SCF (CLOSED SHELL)       Authors: W. Meyer, H.-J. Werner


 NUMBER OF ELECTRONS:      10+   10-    SPACE SYMMETRY=1    SPIN SYMMETRY: Singlet 
 CONVERGENCE THRESHOLDS:    1.00E-07 (Density)    1.00E-08 (Energy)
 MAX. NUMBER OF ITERATIONS:     1000
 INTERPOLATION TYPE:            DIIS
 INTERPOLATION STEPS:              2 (START)      1 (STEP)
 LEVEL SHIFTS:                  0.00 (CLOSED)  0.00 (OPEN) 

 Number of closed-shell orbitals:   10 (  10 )


 Molecular orbitals read from record     2100.2  Type=RHF/CANONICAL (state 1.1)

 Molecular orbital dump at record        2100.1

 ITERATION    DDIFF          GRAD             ENERGY        2-EL.EN.            DIPOLE MOMENTS         DIIS   ORB.
    1      0.000D+00      0.000D+00      -146.59119541    197.567346   -0.00067    0.45530   -0.00000    0    start
    2      0.000D+00      0.148D-03      -146.59120656    197.549348    0.00244    0.45488   -0.00000    1    diag
    3      0.304D-03      0.538D-04      -146.59120870    197.553856   -0.00057    0.45456    0.00000    2    diag
    4      0.138D-03      0.332D-04      -146.59120956    197.553633    0.00188    0.45460    0.00000    3    diag
    5      0.660D-04      0.158D-04      -146.59120995    197.552796    0.00193    0.45466    0.00000    4    diag
    6      0.519D-04      0.720D-05      -146.59121007    197.553255    0.00249    0.45476    0.00000    5    diag
    7      0.413D-04      0.190D-05      -146.59121008    197.553198    0.00259    0.45481    0.00000    6    diag
    8      0.751D-05      0.813D-06      -146.59121008    197.553173    0.00262    0.45480    0.00000    7    orth
    9      0.249D-05      0.366D-06      -146.59121008    197.553190    0.00263    0.45481   -0.00000    8    diag
   10      0.115D-05      0.108D-06      -146.59121008    197.553188    0.00263    0.45481   -0.00000    9    diag
   11      0.444D-06      0.367D-07      -146.59121008    197.553188    0.00263    0.45481   -0.00000    9    diag
   12      0.129D-06      0.136D-07      -146.59121008    197.553189    0.00263    0.45481    0.00000    9    diag
   13      0.600D-07      0.424D-08      -146.59121008    197.553188    0.00263    0.45481   -0.00000    0    orth

 Final occupancy:  10

 !RHF STATE 1.1 Energy               -146.591210081398
 Nuclear energy                        48.34769780
 One-electron energy                 -293.71550206
 Two-electron energy                   98.77659419
 Virial quotient                       -1.00083952
 !RHF STATE 1.1 Dipole moment           0.00263307     0.45481017    -0.00000000
 Dipole moment /Debye                   0.00669217     1.15593643    -0.00000000

 Orbital energies:

         1.1          2.1          3.1          4.1          5.1          6.1          7.1          8.1          9.1         10.1
    -15.680608   -15.680068   -11.355465    -1.344836    -1.140377    -0.675816    -0.620193    -0.605917    -0.550355    -0.427520

        11.1         12.1
      0.017483     0.072735

 HOMO     10.1    -0.427520 =     -11.6334eV
 LUMO     11.1     0.017483 =       0.4757eV
 LUMO-HOMO         0.445003 =      12.1092eV


 **********************************************************************************************************************************
 DATASETS  * FILE   NREC   LENGTH (MB)   RECORD NAMES
              1      19       19.35       500      610      700      900      950      970     1000      129      960     1100   
                                          VAR    BASINP    GEOM    SYMINP    ZMAT    AOBASIS   BASIS     P2S    ABASIS      S 
                                         1400     1410     1200     1210     1080     1600     1650     1700     2100   
                                           T        V       H0       H01     AOSYM     SMH    MOLCAS    OPER      RHF  

              2       8        0.52       700     1000      520     2100     4100     4101     5500     9001   
                                         GEOM     BASIS   MCVARS     RHF     CPHF     CPHF     HINFO   DEN_MP2    

 PROGRAMS   *        TOTAL        HF       MP2        HF       INT
 CPU TIMES  *         6.96      0.17      0.05      0.03      0.22
 REAL TIME  *         8.87 SEC
 DISK USED  *        76.27 MB      
 SF USED    *         2.41 MB      
 GA USED    *         0.00 MB       (max)       0.00 MB       (current)
 **********************************************************************************************************************************


1PROGRAM * MP2 (Closed-shell)     Authors: C. Hampel, H.-J. Werner, 1991, M. Deegan, P.J. Knowles, 1992


 Convergence thresholds:  THRVAR = 1.00D-12  THRDEN = 1.00D-08

 Number of core orbitals:           3 (   3 )
 Number of closed-shell orbitals:   7 (   7 )
 Number of external orbitals:      32 (  32 )

 Molecular orbitals read from record     2100.1  Type=RHF/CANONICAL (state 1.1)

 Number of N-1 electron functions:               7
 Number of N-2 electron functions:              28
 Number of singly external CSFs:               224
 Number of doubly external CSFs:             25200
 Total number of CSFs:                       25425

 Length of J-op  integral file:               0.00 MB
 Length of K-op  integral file:               0.12 MB

 Integral transformation finished. Total CPU:   0.00 sec, npass=  1  Memory used:   0.18 MW

 Memory needed for MP2:                      0.01 MW

 SCS-MP2 correlation energy:           -0.384326271653   (PS=  1.200000  PT=  0.333333)
 SCS-MP2 total energy:               -146.975536353051


  Reference energy                   -146.591210081398
  MP2 singlet pair energy              -0.239971818601
  MP2 triplet pair energy              -0.154864429283
  MP2 correlation energy               -0.394836247884

 !MP2 total energy                   -146.986046329282

 KEXT needed  1 integral passes. Memory used:   0.15 MW  CPU time:      0.00 sec


 CPHF trial vector read from record  4101.2

 Starting Coupled-perturbed Hartree-Fock, convergence threshold= 1.0D-06

 ITER   MIC  DIIS      VAR         VARC       CPU
   1     0     1    0.47D-02    0.31D-04     0.00
   2     8     2    0.15D-04    0.15D-04     0.00
   3     2     3    0.14D-05    0.22D-06     0.00
   4     1     4    0.32D-06    0.86D-08     0.00

 CPHF convergence reached in  4 macroiterations and   11 microiterations.   Accuracy: 3.1911D-07

 Dipole moments (unrelaxed):            0.00253150     0.45618729    -0.00000000
 Orbital relaxation contribution:       0.00004211     0.19169779     0.00000000
 !!MP2 STATE 1.1 Dipole moment          0.00257361     0.64788508    -0.00000000
 Dipole moment /Debye                   0.00654105     1.64665176    -0.00000000
 
 CPU-time for density and lagrangian:                  0.01 sec
 CPU-time for coupled-perturbed hartree-fock:          0.00 sec

 MP2 Gradient info saved on record         5200.1


 **********************************************************************************************************************************
 DATASETS  * FILE   NREC   LENGTH (MB)   RECORD NAMES
              1      21       20.27       500      610      700      900      950      970     1000      129      960     1100   
                                          VAR    BASINP    GEOM    SYMINP    ZMAT    AOBASIS   BASIS     P2S    ABASIS      S 
                                         1400     1410     1200     1210     1080     1600     1650     1700     2100     1380   
                                           T        V       H0       H01     AOSYM     SMH    MOLCAS    OPER      RHF     JKOP   
                                         5200   
                                          MP2  

              2       8        0.52       700     1000      520     2100     4100     4101     5500     9001   
                                         GEOM     BASIS   MCVARS     RHF     CPHF     CPHF     HINFO   DEN_MP2    

 PROGRAMS   *        TOTAL       MP2       MP2        HF       INT
 CPU TIMES  *         7.01      0.05      0.05      0.03      0.22
 REAL TIME  *         8.93 SEC
 DISK USED  *        76.27 MB      
 SF USED    *         2.41 MB      
 GA USED    *         0.00 MB       (max)       0.00 MB       (current)
 **********************************************************************************************************************************
1PROGRAM * ALASKA (Gradient of the energy)     Author: R. Lindh


 MP2      Gradient info restored from record    5200.1

 Number of core orbitals:           3 (   3 )
 Number of closed-shell orbitals:   7 (   7 )
 Number of external orbitals:      32 (  32 )

 Integral thresholds in T2TRAN:            1.0D-10 (PROD)

 Available memory for Transformation: 997885545 words
 Memory needed for incore algorithm:      98465 words
 Minimum memory needed:                   36725 words

 Memory used for transformation:           0.10 MW
 Available memory for gradients:         999.79 MW

 CPU for transformation:                   0.05 sec
 CPU for integrals and gradient:           1.00 sec
 Total CPU:                                1.05 sec

 Prescreening statistics:
 ========================

 Total number of shell quadruplets:        4.39D+02
 Number of shell quadruplets processed:    4.39D+02 (100.00%)

 MP2 GRADIENT FOR STATE 1.1

 Atom          dE/dx               dE/dy               dE/dz

   1        -0.039844879        -0.018128423         0.000000000
   2        -0.002295430         0.035074876         0.000000000
   3         0.042140308        -0.016946453        -0.000000000

 Nuclear force contribution to virial =        -0.121169615
 Starting task   5.  CPU=     9.97 sec, Elapsed=    10.04 sec
 Incrementing variable GZ1              by  0.005292 ANG   to    0.005292 ANG


 Recomputing integrals since geometry changed

1PROGRAM * SEWARD (Integral evaluation for generally contracted gaussian basis sets)     Author: Roland Lindh, 1990

 Geometry written to block  1 of record 700


 Point group  C1  



 ATOMIC COORDINATES

 NR  ATOM    CHARGE       X              Y              Z

   1  N       7.00    1.993600965   -0.359987416    0.010000000
   2  C       6.00   -0.000000000    0.840155072    0.000000000
   3  N       7.00   -1.993600965   -0.359987416    0.000000000

 Bond lengths in Bohr (Angstrom)

 1-2  2.326990933  2-3  2.326969446
     ( 1.231390572)     ( 1.231379201)

 Bond angles

  1-2-3  117.90406177

 NUCLEAR CHARGE:                   20
 NUMBER OF PRIMITIVE AOS:          81
 NUMBER OF SYMMETRY AOS:           78
 NUMBER OF CONTRACTIONS:           42   (  42A   )
 NUMBER OF CORE ORBITALS:           3   (   3A   )
 NUMBER OF VALENCE ORBITALS:       12   (  12A   )


 NUCLEAR REPULSION ENERGY   48.38756879


 Eigenvalues of metric

         1 0.518E-02 0.932E-02 0.281E-01 0.725E-01 0.727E-01 0.808E-01 0.100E+00 0.113E+00


 Contracted 2-electron integrals neglected if value below      1.0D-11
 AO integral compression algorithm  1   Integral accuracy      1.0D-11

     2.359 MB (compressed) written to integral file ( 55.0%)

     Node minimum: 0.786 MB, node maximum: 0.786 MB


 NUMBER OF SORTED TWO-ELECTRON INTEGRALS:     136353.     BUFFER LENGTH:  32768
 NUMBER OF SEGMENTS:   1  SEGMENT LENGTH:     136353      RECORD LENGTH: 524288

 Memory used in sort:       0.69 MW

 SORT1 READ      544483. AND WROTE      106957. INTEGRALS IN      1 RECORDS. CPU TIME:     0.01 SEC, REAL TIME:     0.00 SEC
 SORT2 READ      324973. AND WROTE      408156. INTEGRALS IN      9 RECORDS. CPU TIME:     0.01 SEC, REAL TIME:     0.01 SEC

 Node minimum:      135751.  Node maximum:      136353. integrals

 OPERATOR DM      FOR CENTER  0  COORDINATES:    0.000000    0.000000    0.000000
1PROGRAM * RHF-SCF (CLOSED SHELL)       Authors: W. Meyer, H.-J. Werner


 NUMBER OF ELECTRONS:      10+   10-    SPACE SYMMETRY=1    SPIN SYMMETRY: Singlet 
 CONVERGENCE THRESHOLDS:    1.00E-07 (Density)    1.00E-08 (Energy)
 MAX. NUMBER OF ITERATIONS:     1000
 INTERPOLATION TYPE:            DIIS
 INTERPOLATION STEPS:              2 (START)      1 (STEP)
 LEVEL SHIFTS:                  0.00 (CLOSED)  0.00 (OPEN) 

 Number of closed-shell orbitals:   10 (  10 )


 Molecular orbitals read from record     2100.2  Type=RHF/CANONICAL (state 1.1)

 Molecular orbital dump at record        2100.1

 ITERATION    DDIFF          GRAD             ENERGY        2-EL.EN.            DIPOLE MOMENTS         DIIS   ORB.
    1      0.000D+00      0.000D+00      -146.59152744    197.628307   -0.00001    0.45503   -0.00164    0    start
    2      0.000D+00      0.144D-03      -146.59153673    197.628243    0.00002    0.45502   -0.00267    1    diag
    3      0.247D-03      0.397D-04      -146.59153795    197.628264   -0.00000    0.45502   -0.00217    2    diag
    4      0.929D-04      0.109D-04      -146.59153817    197.628252    0.00003    0.45502   -0.00215    3    diag
    5      0.265D-04      0.766D-05      -146.59153838    197.628260   -0.00002    0.45503   -0.00204    4    diag
    6      0.323D-04      0.568D-05      -146.59153858    197.628249    0.00008    0.45502   -0.00199    5    diag
    7      0.459D-04      0.387D-05      -146.59153867    197.628256   -0.00004    0.45502   -0.00197    6    diag
    8      0.275D-04      0.301D-05      -146.59153873    197.628256    0.00002    0.45502   -0.00195    7    orth
    9      0.308D-04      0.217D-05      -146.59153878    197.628246    0.00001    0.45501   -0.00193    8    diag
   10      0.313D-04      0.118D-05      -146.59153879    197.628267    0.00001    0.45504   -0.00190    9    diag
   11      0.224D-04      0.379D-06      -146.59153879    197.628252    0.00001    0.45502   -0.00190    9    diag
   12      0.339D-05      0.810D-07      -146.59153879    197.628253    0.00001    0.45502   -0.00190    9    diag
   13      0.447D-06      0.215D-07      -146.59153879    197.628253    0.00001    0.45502   -0.00190    9    diag
   14      0.702D-07      0.457D-08      -146.59153879    197.628253    0.00001    0.45502   -0.00190    0    orth

 Final occupancy:  10

 !RHF STATE 1.1 Energy               -146.591538791648
 Nuclear energy                        48.38756879
 One-electron energy                 -293.79323420
 Two-electron energy                   98.81412661
 Virial quotient                       -1.00077792
 !RHF STATE 1.1 Dipole moment           0.00001094     0.45502232    -0.00189573
 Dipole moment /Debye                   0.00002780     1.15647562    -0.00481814

 Orbital energies:

         1.1          2.1          3.1          4.1          5.1          6.1          7.1          8.1          9.1         10.1
    -15.680063   -15.680060   -11.355082    -1.345376    -1.141235    -0.675580    -0.620659    -0.606148    -0.550745    -0.427542

        11.1         12.1
      0.017153     0.073703

 HOMO     10.1    -0.427542 =     -11.6340eV
 LUMO     11.1     0.017153 =       0.4668eV
 LUMO-HOMO         0.444695 =      12.1008eV


 **********************************************************************************************************************************
 DATASETS  * FILE   NREC   LENGTH (MB)   RECORD NAMES
              1      19       19.35       500      610      700      900      950      970     1000      129      960     1100   
                                          VAR    BASINP    GEOM    SYMINP    ZMAT    AOBASIS   BASIS     P2S    ABASIS      S 
                                         1400     1410     1200     1210     1080     1600     1650     1700     2100   
                                           T        V       H0       H01     AOSYM     SMH    MOLCAS    OPER      RHF  

              2       8        0.52       700     1000      520     2100     4100     4101     5500     9001   
                                         GEOM     BASIS   MCVARS     RHF     CPHF     CPHF     HINFO   DEN_MP2    

 PROGRAMS   *        TOTAL        HF       MP2        HF       INT
 CPU TIMES  *         9.19      0.19      0.05      0.03      0.22
 REAL TIME  *        11.14 SEC
 DISK USED  *        76.76 MB      
 SF USED    *         2.41 MB      
 GA USED    *         0.00 MB       (max)       0.00 MB       (current)
 **********************************************************************************************************************************


1PROGRAM * MP2 (Closed-shell)     Authors: C. Hampel, H.-J. Werner, 1991, M. Deegan, P.J. Knowles, 1992


 Convergence thresholds:  THRVAR = 1.00D-12  THRDEN = 1.00D-08

 Number of core orbitals:           3 (   3 )
 Number of closed-shell orbitals:   7 (   7 )
 Number of external orbitals:      32 (  32 )

 Molecular orbitals read from record     2100.1  Type=RHF/CANONICAL (state 1.1)

 Number of N-1 electron functions:               7
 Number of N-2 electron functions:              28
 Number of singly external CSFs:               224
 Number of doubly external CSFs:             25200
 Total number of CSFs:                       25425

 Length of J-op  integral file:               0.00 MB
 Length of K-op  integral file:               0.12 MB

 Integral transformation finished. Total CPU:   0.01 sec, npass=  1  Memory used:   0.18 MW

 Memory needed for MP2:                      0.01 MW

 SCS-MP2 correlation energy:           -0.384166511744   (PS=  1.200000  PT=  0.333333)
 SCS-MP2 total energy:               -146.975705303391


  Reference energy                   -146.591538791648
  MP2 singlet pair energy              -0.239863467006
  MP2 triplet pair energy              -0.154816636075
  MP2 correlation energy               -0.394680103082

 !MP2 total energy                   -146.986218894730

 KEXT needed  1 integral passes. Memory used:   0.15 MW  CPU time:      0.01 sec


 CPHF trial vector read from record  4101.2

 Starting Coupled-perturbed Hartree-Fock, convergence threshold= 1.0D-06

 ITER   MIC  DIIS      VAR         VARC       CPU
   1     0     1    0.33D-02    0.66D-05     0.00
   2    10     2    0.11D-04    0.11D-04     0.00
   3     3     3    0.14D-05    0.15D-06     0.01
   4     1     4    0.89D-06    0.54D-08     0.01

 CPHF convergence reached in  4 macroiterations and   14 microiterations.   Accuracy: 8.8937D-07

 Dipole moments (unrelaxed):            0.00001051     0.45639191    -0.00190144
 Orbital relaxation contribution:       0.00000015     0.19052924    -0.00079360
 !!MP2 STATE 1.1 Dipole moment          0.00001066     0.64692115    -0.00269504
 Dipole moment /Debye                   0.00002709     1.64420185    -0.00684965
 
 CPU-time for density and lagrangian:                  0.00 sec
 CPU-time for coupled-perturbed hartree-fock:          0.01 sec

 MP2 Gradient info saved on record         5200.1


 **********************************************************************************************************************************
 DATASETS  * FILE   NREC   LENGTH (MB)   RECORD NAMES
              1      21       20.27       500      610      700      900      950      970     1000      129      960     1100   
                                          VAR    BASINP    GEOM    SYMINP    ZMAT    AOBASIS   BASIS     P2S    ABASIS      S 
                                         1400     1410     1200     1210     1080     1600     1650     1700     2100     1380   
                                           T        V       H0       H01     AOSYM     SMH    MOLCAS    OPER      RHF     JKOP   
                                         5200   
                                          MP2  

              2       8        0.52       700     1000      520     2100     4100     4101     5500     9001   
                                         GEOM     BASIS   MCVARS     RHF     CPHF     CPHF     HINFO   DEN_MP2    

 PROGRAMS   *        TOTAL       MP2       MP2        HF       INT
 CPU TIMES  *         9.24      0.05      0.05      0.03      0.22
 REAL TIME  *        11.20 SEC
 DISK USED  *        76.76 MB      
 SF USED    *         2.41 MB      
 GA USED    *         0.00 MB       (max)       0.00 MB       (current)
 **********************************************************************************************************************************
1PROGRAM * ALASKA (Gradient of the energy)     Author: R. Lindh


 MP2      Gradient info restored from record    5200.1

 Number of core orbitals:           3 (   3 )
 Number of closed-shell orbitals:   7 (   7 )
 Number of external orbitals:      32 (  32 )

 Integral thresholds in T2TRAN:            1.0D-10 (PROD)

 Available memory for Transformation: 997885545 words
 Memory needed for incore algorithm:      98465 words
 Minimum memory needed:                   36725 words

 Memory used for transformation:           0.10 MW
 Available memory for gradients:         999.79 MW

 CPU for transformation:                   0.06 sec
 CPU for integrals and gradient:           0.98 sec
 Total CPU:                                1.04 sec

 Prescreening statistics:
 ========================

 Total number of shell quadruplets:        4.36D+02
 Number of shell quadruplets processed:    4.36D+02 (100.00%)

 MP2 GRADIENT FOR STATE 1.1

 Atom          dE/dx               dE/dy               dE/dz

   1        -0.042919297        -0.016354865        -0.000039687
   2        -0.000009743         0.032703853        -0.000135905
   3         0.042929040        -0.016348988         0.000175592

 Nuclear force contribution to virial =        -0.131898441
    5 tasks completed, CPU=12s Elapsed=12s
 Starting task   6.  CPU=    12.24 sec, Elapsed=    12.31 sec
 Incrementing variable GX2              by  0.005292 ANG   to    0.005292 ANG


 Recomputing integrals since geometry changed

1PROGRAM * SEWARD (Integral evaluation for generally contracted gaussian basis sets)     Author: Roland Lindh, 1990

 Geometry written to block  1 of record 700


 Point group  C1  



 ATOMIC COORDINATES

 NR  ATOM    CHARGE       X              Y              Z

   1  N       7.00    1.993600965   -0.359987416    0.000000000
   2  C       6.00    0.010000000    0.840155072    0.000000000
   3  N       7.00   -1.993600965   -0.359987416    0.000000000

 Bond lengths in Bohr (Angstrom)

 1-2  2.318407812  2-3  2.335542511
     ( 1.226848580)     ( 1.235915872)

 Bond angles

  1-2-3  117.90340683

 NUCLEAR CHARGE:                   20
 NUMBER OF PRIMITIVE AOS:          81
 NUMBER OF SYMMETRY AOS:           78
 NUMBER OF CONTRACTIONS:           42   (  42A   )
 NUMBER OF CORE ORBITALS:           3   (   3A   )
 NUMBER OF VALENCE ORBITALS:       12   (  12A   )


 NUCLEAR REPULSION ENERGY   48.38817477

 EXTRA SYMMETRY OF AOS IN SYMMETRY 1:   1 1 1 1 1 2 1 1 2 1   1 2 1 2 1 1 1 1 1 2   1 1 2 1 1 2 1 2 1 1   1 1 1 2 1 1 2 1 1 2
                                        1 2

 Eigenvalues of metric

         1 0.518E-02 0.932E-02 0.281E-01 0.722E-01 0.729E-01 0.810E-01 0.100E+00 0.113E+00


 Contracted 2-electron integrals neglected if value below      1.0D-11
 AO integral compression algorithm  1   Integral accuracy      1.0D-11

     1.573 MB (compressed) written to integral file ( 42.3%)

     Node minimum: 0.524 MB, node maximum: 0.524 MB


 NUMBER OF SORTED TWO-ELECTRON INTEGRALS:     136353.     BUFFER LENGTH:  32768
 NUMBER OF SEGMENTS:   1  SEGMENT LENGTH:     136353      RECORD LENGTH: 524288

 Memory used in sort:       0.69 MW

 SORT1 READ      544483. AND WROTE       61337. INTEGRALS IN      1 RECORDS. CPU TIME:     0.01 SEC, REAL TIME:     0.01 SEC
 SORT2 READ      188301. AND WROTE      408156. INTEGRALS IN      6 RECORDS. CPU TIME:     0.00 SEC, REAL TIME:     0.01 SEC

 Node minimum:      135751.  Node maximum:      136353. integrals

 OPERATOR DM      FOR CENTER  0  COORDINATES:    0.000000    0.000000    0.000000
1PROGRAM * RHF-SCF (CLOSED SHELL)       Authors: W. Meyer, H.-J. Werner


 NUMBER OF ELECTRONS:      10+   10-    SPACE SYMMETRY=1    SPIN SYMMETRY: Singlet 
 CONVERGENCE THRESHOLDS:    1.00E-07 (Density)    1.00E-08 (Energy)
 MAX. NUMBER OF ITERATIONS:     1000
 INTERPOLATION TYPE:            DIIS
 INTERPOLATION STEPS:              2 (START)      1 (STEP)
 LEVEL SHIFTS:                  0.00 (CLOSED)  0.00 (OPEN) 

 Number of closed-shell orbitals:   10 (  10 )


 Molecular orbitals read from record     2100.2  Type=RHF/CANONICAL (state 1.1)

 Molecular orbital dump at record        2100.1

 ITERATION    DDIFF          GRAD             ENERGY        2-EL.EN.            DIPOLE MOMENTS         DIIS   ORB.
    1      0.000D+00      0.000D+00      -146.59144578    197.629001    0.00143    0.45504   -0.00000    0    start
    2      0.000D+00      0.264D-03      -146.59148906    197.629507   -0.00779    0.45502   -0.00000    1    diag
    3      0.617D-03      0.132D-03      -146.59150009    197.629374    0.00092    0.45502   -0.00000    2    diag
    4      0.305D-03      0.763D-04      -146.59150634    197.629487   -0.00390    0.45503   -0.00000    3    diag
    5      0.180D-03      0.326D-04      -146.59150864    197.629550   -0.00427    0.45503    0.00000    4    diag
    6      0.160D-03      0.894D-05      -146.59150883    197.629562   -0.00477    0.45505    0.00000    5    diag
    7      0.530D-04      0.238D-05      -146.59150884    197.629561   -0.00489    0.45504   -0.00000    6    diag
    8      0.921D-05      0.113D-05      -146.59150884    197.629575   -0.00495    0.45507    0.00000    7    orth
    9      0.454D-05      0.469D-06      -146.59150884    197.629563   -0.00498    0.45505   -0.00000    8    diag
   10      0.166D-05      0.131D-06      -146.59150884    197.629567   -0.00498    0.45506   -0.00000    9    diag
   11      0.449D-06      0.360D-07      -146.59150884    197.629566   -0.00498    0.45506   -0.00000    9    diag
   12      0.138D-06      0.722D-08      -146.59150884    197.629566   -0.00498    0.45506   -0.00000    9    diag
   13      0.198D-07      0.147D-08      -146.59150884    197.629566   -0.00498    0.45506   -0.00000    0    orth

 Final occupancy:  10

 !RHF STATE 1.1 Energy               -146.591508843234
 Nuclear energy                        48.38817477
 One-electron energy                 -293.79446674
 Two-electron energy                   98.81478313
 Virial quotient                       -1.00077497
 !RHF STATE 1.1 Dipole moment          -0.00498123     0.45505521    -0.00000000
 Dipole moment /Debye                  -0.01266021     1.15655922    -0.00000000

 Orbital energies:

         1.1          2.1          3.1          4.1          5.1          6.1          7.1          8.1          9.1         10.1
    -15.680952   -15.679151   -11.355053    -1.345398    -1.141209    -0.675567    -0.620662    -0.606142    -0.550758    -0.427556

        11.1         12.1
      0.017159     0.073709

 HOMO     10.1    -0.427556 =     -11.6344eV
 LUMO     11.1     0.017159 =       0.4669eV
 LUMO-HOMO         0.444716 =      12.1013eV


 **********************************************************************************************************************************
[...]
1PROGRAM * ALASKA (Gradient of the energy)     Author: R. Lindh


 MP2      Gradient info restored from record    5200.1

 Number of core orbitals:           3 (   3 )
 Number of closed-shell orbitals:   7 (   7 )
 Number of external orbitals:      32 (  32 )

 Integral thresholds in T2TRAN:            1.0D-10 (PROD)

 Available memory for Transformation: 997885545 words
 Memory needed for incore algorithm:      98465 words
 Minimum memory needed:                   36725 words

 Memory used for transformation:           0.10 MW
 Available memory for gradients:         999.79 MW

 CPU for transformation:                   0.06 sec
 CPU for integrals and gradient:           0.99 sec
 Total CPU:                                1.05 sec

 Prescreening statistics:
 ========================

 Total number of shell quadruplets:        4.41D+02
 Number of shell quadruplets processed:    4.41D+02 (100.00%)

 MP2 GRADIENT FOR STATE 1.1

 Atom          dE/dx               dE/dy               dE/dz

   1        -0.042917053        -0.016356511        -0.000136166
   2        -0.000000000         0.032713021         0.000272332
   3         0.042917053        -0.016356511        -0.000136166

 Nuclear force contribution to virial =        -0.131855945

 Numerical MP2 hessian completed. CPU-time:    21.29 sec, Elapsed:    21.37 sec

 MP2 hessian saved to record  5300.2

 FREQUENCIES * CALCULATION OF HARMONIC VIBRATIONAL SPECTRA FOR MP2


 Permanent Dipole Moment [debye]
   1-  3   -0.000000    1.644217   -0.000000

 Dipole Moment Norm    1.6442171 [debye]

 Dipole Moment Derivatives [debye/ang]
                   1             2             3             4             5             6             7             8
         1     0.7523116    -1.2321680     0.0000000    -1.5043488    -0.0000000     0.0000000     0.7523116     1.2321680
         2    -1.1185584    -0.4707389     0.0000000     0.0000000     0.9413901     0.0000000     1.1185584    -0.4707389
         3     0.0000000     0.0000000    -1.2943963     0.0000000    -0.0000000     2.5887994    -0.0000000     0.0000000
                   9
         1     0.0000000
         2     0.0000000
         3    -1.2943963

 Force Constants (Second Derivatives of the Energy) in [a.u.]
                             GX1         GY1         GZ1         GX2         GY2     
           GX1           0.5975911
           GY1          -0.3122216   0.1786892
           GZ1          -0.0000000  -0.0000000  -0.0039687
           GX2          -0.4015113   0.2335045  -0.0000000   0.8031214
           GY2           0.3909692  -0.2384096   0.0000000   0.0000000   0.4768277
           GZ2           0.0000000   0.0000000  -0.0136035   0.0000000  -0.0000000
           GX3          -0.1961293   0.0787464   0.0000000  -0.4015113  -0.3909692
           GY3          -0.0787464   0.0597162   0.0000000  -0.2335045  -0.2384096
           GZ3          -0.0000000   0.0000000   0.0175592   0.0000000   0.0000000
                             GZ2         GX3         GY3         GZ3     
           GZ2           0.0272332
           GX3          -0.0000000   0.5975911
           GY3           0.0000000   0.3122216   0.1786892
           GZ3          -0.0136035   0.0000000  -0.0000000  -0.0039687


 Atomic Masses
   1-  3   14.006700   12.011000   14.006700

 Mass weighted Second Derivative Matrix
                             GX1         GY1         GZ1         GX2         GY2     
           GX1           0.0426647
           GY1          -0.0222909   0.0127574
           GZ1          -0.0000000  -0.0000000  -0.0002833
           GX2          -0.0309557   0.0180027  -0.0000000   0.0668655
           GY2           0.0301429  -0.0183809   0.0000000   0.0000000   0.0396993
           GZ2           0.0000000   0.0000000  -0.0010488   0.0000000  -0.0000000
           GX3          -0.0140025   0.0056221   0.0000000  -0.0309557  -0.0301429
           GY3          -0.0056221   0.0042634   0.0000000  -0.0180027  -0.0183809
           GZ3          -0.0000000   0.0000000   0.0012536   0.0000000   0.0000000
                             GZ2         GX3         GY3         GZ3     
           GZ2           0.0022674
           GX3          -0.0000000   0.0426647
           GY3           0.0000000   0.0222909   0.0127574
           GZ3          -0.0010488   0.0000000  -0.0000000  -0.0002833


 Mass Weighted 2nd Derivative Matrix Eigenvalues
   1-  9   -0.001537   -0.001091   -0.000000   -0.000000   -0.000000    0.003238    0.005740    0.105112    0.107648

 Mass Weighted 2nd Derivative Matrix Eigenvectors
                   1             2             3             4             5             6             7             8
         1     0.0000000     0.1163388     0.0000000     0.5915946     0.0000479    -0.0000000    -0.5001297    -0.3694334
         2     0.0000000     0.6744450     0.0000000    -0.0000044     0.5915834    -0.0000000    -0.2738034     0.2124240
         3     0.7071068    -0.0000000     0.5917393    -0.0000000    -0.0000000    -0.3870976     0.0000000    -0.0000000
         4    -0.0000000    -0.2513532     0.0000000     0.5477514     0.0000234    -0.0000000     0.0000000     0.7979912
         5     0.0000000     0.0000000     0.0000000    -0.0000234     0.5477757     0.0000000     0.5914423    -0.0000000
         6     0.0000000     0.0000000     0.5474387    -0.0000000    -0.0000000     0.8368458    -0.0000000    -0.0000000
         7     0.0000000     0.1163388     0.0000000     0.5915946     0.0000028     0.0000000     0.5001297    -0.3694334
         8    -0.0000000    -0.6744450     0.0000000    -0.0000462     0.5915834    -0.0000000    -0.2738034    -0.2124240
         9    -0.7071068     0.0000000     0.5917393    -0.0000000    -0.0000000    -0.3870976     0.0000000     0.0000000
                   9
         1     0.4998703
         2    -0.2739722
         3    -0.0000000
         4     0.0000000
         5     0.5917245
         6     0.0000000
         7    -0.4998703
         8    -0.2739722
         9    -0.0000000

 Imaginary Vibration  Wavenumber
        Nr             [1/cm] 
        1              201.53
        2              169.76
        3                0.13
        4                0.09
        5                0.02

     Vibration        Wavenumber
        Nr             [1/cm] 
        1              292.49
        2              389.44
        3             1666.59
        4             1686.57

 FREQUENCIES * CALCULATION OF NORMAL MODES FOR MP2


 Atomic Coordinates

  Nr  Atom  Charge       X              Y              Z

   1   N     7.00    1.993600965   -0.359987416    0.000000000
   2   C     6.00   -0.000000000    0.840155072    0.000000000
   3   N     7.00   -1.993600965   -0.359987416    0.000000000

 Frequencies dumped to record   5400.2

 Normal Modes

                              1 B1        2 A1        3 B2        4 Err
 Wavenumbers [cm-1]          292.49      389.44     1666.59     1686.57
 Intensities [km/mol]         33.69       11.80       17.03        0.20
 Intensities [relative]      100.00       35.03       50.54        0.60
           GX1             -0.00000    -0.13363    -0.09871     0.13356
           GY1             -0.00000    -0.07316     0.05676    -0.07320
           GZ1             -0.10343     0.00000    -0.00000    -0.00000
           GX2             -0.00000     0.00000     0.23025     0.00000
           GY2              0.00000     0.17066    -0.00000     0.17074
           GZ2              0.24147    -0.00000    -0.00000     0.00000
           GX3              0.00000     0.13363    -0.09871    -0.13356
           GY3             -0.00000    -0.07316    -0.05676    -0.07320
           GZ3             -0.10343     0.00000     0.00000    -0.00000


 Normal Modes of imaginary frequencies

                                  1           2           3           4           5
 Wavenumbers [cm-1]          201.53      169.76        0.13        0.09        0.02
 Intensities [km/mol]          0.00        3.51        0.00        0.00        0.00
 Intensities [relative]        0.00       10.42        0.00        0.00        0.00
           GX1              0.00000     0.03109     0.00000     0.15807     0.00001
           GY1              0.00000     0.18021     0.00000    -0.00000     0.15807
           GZ1              0.18894    -0.00000     0.15811    -0.00000    -0.00000
           GX2             -0.00000    -0.07253     0.00000     0.15805     0.00001
           GY2              0.00000     0.00000     0.00000    -0.00001     0.15806
           GZ2              0.00000     0.00000     0.15796    -0.00000    -0.00000
           GX3              0.00000     0.03109     0.00000     0.15807     0.00000
           GY3             -0.00000    -0.18021     0.00000    -0.00001     0.15807
           GZ3             -0.18894     0.00000     0.15811    -0.00000    -0.00000


 Normal Modes of low/zero frequencies


 Wavenumbers [cm-1]
 Intensities [km/mol]
 Intensities [relative]
           GX1     
           GY1     
           GZ1     
           GX2     
           GY2     
           GZ2     
           GX3     
           GY3     
           GZ3     


 Zero point energy:  0.00919259 [H]     2017.54 [1/CM]       24.14 [KJ/MOL]

 Recomputing wavefunction at initial geometry


 Recomputing integrals since geometry changed

1PROGRAM * SEWARD (Integral evaluation for generally contracted gaussian basis sets)     Author: Roland Lindh, 1990

 Geometry written to block  1 of record 700


 Point group  C1  



 ATOMIC COORDINATES

 NR  ATOM    CHARGE       X              Y              Z

   1  N       7.00    1.993600965   -0.359987416    0.000000000
   2  C       6.00   -0.000000000    0.840155072    0.000000000
   3  N       7.00   -1.993600965   -0.359987416    0.000000000

 Bond lengths in Bohr (Angstrom)

 1-2  2.326969446  2-3  2.326969446
     ( 1.231379201)     ( 1.231379201)

 Bond angles

  1-2-3  117.90434194

 NUCLEAR CHARGE:                   20
 NUMBER OF PRIMITIVE AOS:          81
 NUMBER OF SYMMETRY AOS:           78
 NUMBER OF CONTRACTIONS:           42   (  42A   )
 NUMBER OF CORE ORBITALS:           3   (   3A   )
 NUMBER OF VALENCE ORBITALS:       12   (  12A   )


 NUCLEAR REPULSION ENERGY   48.38777411

 EXTRA SYMMETRY OF AOS IN SYMMETRY 1:   1 1 1 1 1 2 1 1 2 1   1 2 1 2 1 1 1 1 1 2   1 1 2 1 1 2 1 2 1 1   1 1 1 2 1 1 2 1 1 2
                                        1 2

 Eigenvalues of metric

         1 0.518E-02 0.932E-02 0.281E-01 0.725E-01 0.727E-01 0.808E-01 0.100E+00 0.113E+00


 Contracted 2-electron integrals neglected if value below      1.0D-11
 AO integral compression algorithm  1   Integral accuracy      1.0D-11

     1.573 MB (compressed) written to integral file ( 42.2%)

     Node minimum: 0.524 MB, node maximum: 0.524 MB


 NUMBER OF SORTED TWO-ELECTRON INTEGRALS:     136353.     BUFFER LENGTH:  32768
 NUMBER OF SEGMENTS:   1  SEGMENT LENGTH:     136353      RECORD LENGTH: 524288

 Memory used in sort:       0.69 MW

 SORT1 READ      544483. AND WROTE       61193. INTEGRALS IN      1 RECORDS. CPU TIME:     0.00 SEC, REAL TIME:     0.00 SEC
 SORT2 READ      187869. AND WROTE      408156. INTEGRALS IN      6 RECORDS. CPU TIME:     0.01 SEC, REAL TIME:     0.01 SEC

 Node minimum:      135751.  Node maximum:      136353. integrals

 OPERATOR DM      FOR CENTER  0  COORDINATES:    0.000000    0.000000    0.000000
1PROGRAM * RHF-SCF (CLOSED SHELL)       Authors: W. Meyer, H.-J. Werner


 NUMBER OF ELECTRONS:      10+   10-    SPACE SYMMETRY=1    SPIN SYMMETRY: Singlet 
 CONVERGENCE THRESHOLDS:    1.00E-06 (Density)    1.00E-08 (Energy)
 MAX. NUMBER OF ITERATIONS:     1000
 INTERPOLATION TYPE:            DIIS
 INTERPOLATION STEPS:              2 (START)      1 (STEP)
 LEVEL SHIFTS:                  0.00 (CLOSED)  0.00 (OPEN) 

 Number of closed-shell orbitals:   10 (  10 )


 Molecular orbitals read from record     2100.2  Type=RHF/CANONICAL (state 1.1)

 Molecular orbital dump at record        2100.2

 ITERATION    DDIFF          GRAD             ENERGY        2-EL.EN.            DIPOLE MOMENTS         DIIS   ORB.
    1      0.000D+00      0.000D+00      -146.59153928    197.628645   -0.00000    0.45503   -0.00000    0    start
    2      0.000D+00      0.121D-07      -146.59153928    197.628645    0.00000    0.45503    0.00000    0    orth

 Final occupancy:  10

 !RHF STATE 1.1 Energy               -146.591539281524
 Nuclear energy                        48.38777411
 One-electron energy                 -293.79363614
 Two-electron energy                   98.81432275
 Virial quotient                       -1.00077763
 !RHF STATE 1.1 Dipole moment           0.00000000     0.45503229     0.00000000
 Dipole moment /Debye                   0.00000000     1.15650096     0.00000000

 Orbital energies:

         1.1          2.1          3.1          4.1          5.1          6.1          7.1          8.1          9.1         10.1
    -15.680061   -15.680060   -11.355080    -1.345379    -1.141237    -0.675580    -0.620661    -0.606149    -0.550747    -0.427542

        11.1         12.1
      0.017153     0.073705

 HOMO     10.1    -0.427542 =     -11.6340eV
 LUMO     11.1     0.017153 =       0.4668eV
 LUMO-HOMO         0.444695 =      12.1008eV


 **********************************************************************************************************************************
 DATASETS  * FILE   NREC   LENGTH (MB)   RECORD NAMES
              1      18       19.17       500      610      700      900      950      970     1000      129      960     1100   
                                          VAR    BASINP    GEOM    SYMINP    ZMAT    AOBASIS   BASIS     P2S    ABASIS      S 
                                         1400     1410     1200     1210     1080     1600     1650     1700   
                                           T        V       H0       H01     AOSYM     SMH    MOLCAS    OPER   

              2       9        0.51       700     1000      520     2100     4100     4101     5300     5400     5450   
                                         GEOM     BASIS   MCVARS     RHF     CPHF     CPHF     HESS     FREQ     NMOD   

 PROGRAMS   *        TOTAL        HF       MP2        HF       INT
 CPU TIMES  *        20.26      0.15      0.05      0.03      0.22
 REAL TIME  *        22.45 SEC
 DISK USED  *        76.82 MB      
 SF USED    *         2.41 MB      
 GA USED    *         0.00 MB       (max)       0.00 MB       (current)
 **********************************************************************************************************************************


1PROGRAM * MP2 (Closed-shell)     Authors: C. Hampel, H.-J. Werner, 1991, M. Deegan, P.J. Knowles, 1992


 Convergence thresholds:  THRVAR = 1.00D-12  THRDEN = 1.00D-08

 Number of core orbitals:           3 (   3 )
 Number of closed-shell orbitals:   7 (   7 )
 Number of external orbitals:      32 (  32 )

 Molecular orbitals read from record     2100.2  Type=RHF/CANONICAL (state 1.1)

 Number of N-1 electron functions:               7
 Number of N-2 electron functions:              28
 Number of singly external CSFs:               224
 Number of doubly external CSFs:             25200
 Total number of CSFs:                       25425

 Length of J-op  integral file:               0.00 MB
 Length of K-op  integral file:               0.12 MB

 Integral transformation finished. Total CPU:   0.01 sec, npass=  1  Memory used:   0.18 MW

 Memory needed for MP2:                      0.01 MW

 SCS-MP2 correlation energy:           -0.384165808127   (PS=  1.200000  PT=  0.333333)
 SCS-MP2 total energy:               -146.975705089651


  Reference energy                   -146.591539281524
  MP2 singlet pair energy              -0.239862997744
  MP2 triplet pair energy              -0.154816410270
  MP2 correlation energy               -0.394679408013

 !MP2 total energy                   -146.986218689538

 KEXT needed  1 integral passes. Memory used:   0.15 MW  CPU time:      0.01 sec


 CPHF trial vector read from record  4101.2

 Starting Coupled-perturbed Hartree-Fock, convergence threshold= 1.0D-06

 ITER   MIC  DIIS      VAR         VARC       CPU
   1     0     1    0.14D-06    0.23D-08     0.00

 CPHF convergence reached in  1 macroiterations and    0 microiterations.   Accuracy: 1.4457D-07

 CPHF solution written to record  4101.2

 Dipole moments (unrelaxed):            0.00000000     0.45640176     0.00000000
 Orbital relaxation contribution:      -0.00000000     0.19052608    -0.00000000
 !!MP2 STATE 1.1 Dipole moment          0.00000000     0.64692783     0.00000000
 Dipole moment /Debye                   0.00000000     1.64421885     0.00000000
 
 CPU-time for density and lagrangian:                  0.00 sec
 CPU-time for coupled-perturbed hartree-fock:          0.00 sec

 MP2 Gradient info saved on record         5200.1


 **********************************************************************************************************************************
 DATASETS  * FILE   NREC   LENGTH (MB)   RECORD NAMES
              1      20       20.09       500      610      700      900      950      970     1000      129      960     1100   
                                          VAR    BASINP    GEOM    SYMINP    ZMAT    AOBASIS   BASIS     P2S    ABASIS      S 
                                         1400     1410     1200     1210     1080     1600     1650     1700     1380     5200   
                                           T        V       H0       H01     AOSYM     SMH    MOLCAS    OPER     JKOP      MP2  

              2       9        0.51       700     1000      520     2100     4100     4101     5300     5400     5450   
                                         GEOM     BASIS   MCVARS     RHF     CPHF     CPHF     HESS     FREQ     NMOD   

 PROGRAMS   *        TOTAL       MP2       MP2        HF       INT
 CPU TIMES  *        20.30      0.04      0.05      0.03      0.22
 REAL TIME  *        22.50 SEC
 DISK USED  *        76.82 MB      
 SF USED    *         2.41 MB      
 GA USED    *         0.00 MB       (max)       0.00 MB       (current)
 **********************************************************************************************************************************


 **********************************************************************************************************************************
 DATASETS  * FILE   NREC   LENGTH (MB)   RECORD NAMES
              1      20       20.09       500      610      700      900      950      970     1000      129      960     1100   
                                          VAR    BASINP    GEOM    SYMINP    ZMAT    AOBASIS   BASIS     P2S    ABASIS      S 
                                         1400     1410     1200     1210     1080     1600     1650     1700     1380     5200   
                                           T        V       H0       H01     AOSYM     SMH    MOLCAS    OPER     JKOP      MP2  

              2       9        0.51       700     1000      520     2100     4100     4101     5300     5400     5450   
                                         GEOM     BASIS   MCVARS     RHF     CPHF     CPHF     HESS     FREQ     NMOD   

 PROGRAMS   *        TOTAL      FREQ       MP2        HF       INT
 CPU TIMES  *        20.30     19.89      0.05      0.03      0.22
 REAL TIME  *        22.50 SEC
 DISK USED  *        76.82 MB      
 SF USED    *         2.41 MB      
 GA USED    *         0.00 MB       (max)       0.00 MB       (current)
 **********************************************************************************************************************************

 MP2/cc-pVDZ energy=   -146.986218689538

        MP2             HF-SCF  
   -146.98621868   -146.59153928
 **********************************************************************************************************************************
 Variable memory released
