[Molden Format]
[Molpro variables]
_NUMVAR=  903.0000000000000    
_AVOGAD= 0.6022136736000000E+24
_BOLTZ= 0.1380658000000000E-22
_CLIGHT=  29979245800.00000    
_EV= 0.3674932379085202E-01
_ENULL= 0.8854187817000000E-11
_KJOULE= 0.3808798324128737E-03
_KJOULE/MOL= 0.3808798324128737E-03
_CM= 0.4556335267302901E-05
_CM-1= 0.4556335267302901E-05
_DEB2SI= 0.3335641000000000E-29
_AMU2AU=  1822.888390000000    
_KCAL= 0.1593601117815568E-02
_KCAL/MOL= 0.1593601117815568E-02
_KELVIN= 0.3166811411060229E-05
_JOULE= 0.4359748200000000E-17
_HERTZ= 0.1519829846004524E-15
_HZ= 0.1519829846004524E-15
_JPCAL=  4.184000000000000    
_PLANCK= 0.6626075540000000E-33
_TOA= 0.5291772109200000    
_TOANG= 0.5291772109200000    
_TORAD= 0.1745329251994330E-01
_TOCM=  219474.6306700000    
_TODEBYE=  2.541580000000000    
_TOE= 0.4803242000000000E-09
_TOEV=  27.21138505000000    
_TOHERTZ=  6579683920729000.    
_TOHZ=  6579683920729000.    
_TOK=  315775.0400000000    
_TOKCAL=  627.5096000000000    
_TOKELVIN=  315775.0400000000    
_TOKJ=  2625.500000000000    
_TOKJOULE=  2625.500000000000    
_TOKG= 0.1660565586000000E-26
_ANG=  1.889726124565062    
_ANGSTROM=  1.889726124565062    
_RPAREF=  0.000000000000000    
_RPADISS=  0.000000000000000    
_IGNORE_UNDEF=  2.000000000000000    
_STRICTCHECK=  0.000000000000000    
_SEW_ONEEL=  0.000000000000000    
_CPPDONE=FALSE
_DKROLL_DONE=  0.000000000000000    
_FOCKDONE=  0.000000000000000    
_GRADONE=FALSE
_HESSDONE=TRUE
_INTDONE=TRUE
_SCFDONE=FALSE
_MODUL_BLOCK=FALSE
_MODUL_CUDA=FALSE
_MODUL_SLATER=FALSE
_MODUL_MRCC=FALSE
_MODUL_NBO6=FALSE
_MODUL_NECI=TRUE
_MODUL_AIMS=TRUE
_MRCC_EXEC=
_FITC_AO_SAVED=FALSE
_FITC_MO_SAVED=FALSE
_SHARED_FS=TRUE
_LSTYP=SEWARD
_INTYP=INTS
_GEOMTYP=ZMAT
_GRADTYP=ALASKA
_DIRECT=FALSE
_DKHO= -1.000000000000000    
_SYNCM=  0.000000000000000    
_BASIS=AUG-CC-PVDZ
_ZUNIT=ANG
_ZORIENT=  1.000000000000000    
_CHARGE=  0.000000000000000    
_NELEC=  22.00000000000000    
_SPIN=  2.000000000000000    
!SPIN=  2.000000000000000    
_QSDSTEP=  0.000000000000000    
_QSDIRC=  0.000000000000000    
_PROGRAM=FREQ
_CPUSTEP= 0.1000000000021828E-01
_SYSSTEP=  0.000000000000000    
_WALLSTEP=  0.000000000000000    
!DFMP2=  0.000000000000000    
!DFSCF=  0.000000000000000    
!SCSGRD=  0.000000000000000    
_BASINP=  610.0000000000000    
_CPUTOT=  11276.37000000000    
_DFTEXFAC=  1.000000000000000    
_DMX=-0.1975559032461185    
_DMY=-0.7362879897362568E-01
_DMZ=  0.000000000000000    
_DMX_SCF=-0.1169134540348359    
_DMY_SCF=-0.5023239877020737E-01
_DMZ_SCF=  0.000000000000000    
_FREQUENCIES= -372.3151482809727    
_EHOMO=-0.5398544825352717    
_ELUMO= 0.1026835006349707    
_EIGS= -20.65978506183438    
_EMP2= -184.1391572483370    
_ENERGR= -183.8145474414117    
_ENERGU= -184.1953775920012    
_ENERGY= -184.1391572483370    
_ENERGY_METHOD=RS2
_ENERGY_BASIS=aug-cc-pVDZ
_GEOMETRY_METHOD=
_GEOMETRY_BASIS=
_ENUC=  51.84083767117741    
_FREQSTEP=  16.00000000000000    
!RS2GRSTATE=  1.000000000000000    
!RS2GRSYM=  1.000000000000000    
!RS2GRSTATE_COUP=  0.000000000000000    
_GRADENERG= -184.1391585005255    
_GRADEXFAC=  9999.000000000000    
_GRADMETHOD=TRUE
_NMRMETHOD=  0.000000000000000    
_NMRMAGNET=  0.000000000000000    
_GRADRECORD=  5200.100000000000    
_VIRIAL=-0.2237029715342989    
!GRID_FREEZE= -1.000000000000000    
_ITERATIONS=  0.000000000000000    
_LASTNELEC=  12.00000000000000    
_LASTSPIN=  2.000000000000000    
_LASTSYM=  1.000000000000000    
_MPP_PROG=  1.000000000000000    
_MSENERGY= -184.1391572483370    
_MSCOEFF=  1.000000000000000    
_MSNSTATES=  1.000000000000000    
_RS2PHASE=  0.000000000000000    
_NPROC_MPP=  3.000000000000000    
_NPROC_MPPX=  3.000000000000000    
_NPROC_SMP=  1.000000000000000    
_NUMSTEP=  0.000000000000000    
_ORBITAL=  2140.200000000000    
_PI=  3.141592653589793    
!MCACT=  7.000000000000000    
!MCCLOSED=  5.000000000000000    
!MCFREEZE=  0.000000000000000    
!MCMS2=  2.000000000000000    
!MCNEL=  12.00000000000000    
!MCNSTSYM=  1.000000000000000    
!MCSTATE=  1.000000000000000    
!MCSYM=  1.000000000000000    
!MCWEIGHT=  1.000000000000000    
_SEIG_MIN= 0.1336408054322379E-03
_SEWPROP=TRUE
_STATUS=  1.000000000000000    
_SYSTOT=  298.4200000000000    
_VERSION=  2015001.000000000    
_WALLTOT=  11579.01000000000    
_ZPE= 0.5971641217904306E-02
_DATE=17-Aug-21
_LASTORB=MCSCF
_MACHINE= 64 bit mpp version
_OUTPUT=/lcrc/project/CMRP/amech/autoio/autoio-interfaces/autorun/tests/tmp-mol/HESS-2/run.out
_PGROUP=Cs
_TIME=13:27:28
_LIBMOL=/blues/gpfs/home/software/molpro/2015.1_170920/bebop/molprop_2015_1_linux_x86_64_i8/lib/
_VIGRDC=  0.000000000000000    
!VIBCNT=  0.000000000000000    
!RGHFCNT=  0.000000000000000    
!SURFREC=  0.000000000000000    
!ROTREC=  0.000000000000000    
!POLYREC=  0.000000000000000    
!DIPREC=  0.000000000000000    
!DIP4DREC=  0.000000000000000    
!DIPROT=  0.000000000000000    
!DIP4DROT=  0.000000000000000    
!PTREC=  0.000000000000000    
!PT4DREC=  0.000000000000000    
!VSCFREC=  0.000000000000000    
!VCIREC=  0.000000000000000    
!PVCIREC=  0.000000000000000    
!VMP2REC=  0.000000000000000    
!VMCSCFREC=  0.000000000000000    
!VMRCIREC=  0.000000000000000    
!VIBSTATEREC=  0.000000000000000    
!VIBSTATECNT=  0.000000000000000    
!VIBINFO=  0.000000000000000    
!GAREC=  0.000000000000000    
!SCFORB=  21002.00000000000    
!MCORB=  21402.00000000000    
!CIOCC=  12.00000000000000    
!CICORE=  3.000000000000000    
!CICLOS=  5.000000000000000    
!CIISTSYM=  1.000000000000000    
!CIISTMS2=  2.000000000000000    
!CIISTNEL=  16.00000000000000    
!NEWMOL=  0.000000000000000    
!NEWSYM=  1.000000000000000    
_SLFILES=slscratch
_NGSSTO=  9.000000000000000    
_SIN=SIN
_COS=COS
_TAN=TAN
_ACOS=ACOS
_ASIN=ASIN
_ATAN=ATAN
_COSH=COSH
_SINH=SINH
_TANH=TANH
_ABS=ABS
_MOD=MOD
_ERF=ERF
_REFC=REFC
_ERFC=ERFC
_HYPOT=HYPOT
_J0=J0
_J1=J1
_JN=JN
_GAMMA=GAMMA
_LGAMMA=LGAMMA
_Y0=Y0
_Y1=Y1
_YN=YN
_EXP=EXP
_LOG=LOG
_LOG10=LOG10
_SQRT=SQRT
_INT=INT
_NINT=NINT
_MAX=MAX
_MIN=MIN
_COSMO=  0.000000000000000    
_COSMOIT=  0.000000000000000    
_COSMOES=  0.000000000000000    
_COSMOEDS=  0.000000000000000    
_COSMOEC=  0.000000000000000    
_COSMOEDCORR=  0.000000000000000    
_FEPSI=  1.000000000000000    
_SL_IsMM=  0.000000000000000    
_SL_NSYM=  2.000000000000000    
_SL_System_BitSw=  0.000000000000000    
_SL_Unique_atoms=  0.000000000000000    
_SL_GRAD=  0.000000000000000    
_SL_MAXUPD_Hess=  5.000000000000000    
_SL_N_PRINT_COD=  5.000000000000000    
_SL_PRINT_CODES=  0.000000000000000    
_SL_BasType=  0.000000000000000    
_SL_Energy_Pred=  0.000000000000000    
_SL_New_Coords=  0.000000000000000    
_SL_Total_Nuclea=  0.000000000000000    
_SL_Highest_Mltp=  0.000000000000000    
_SL_Ref_Geom=  0.000000000000000    
_SL_Symmetry_ope=  3.000000000000000    
_SL_agrad=  0.000000000000000    
_SL_GrdMax=  0.000000000000000    
_SL_GrdNorm=  0.000000000000000    
_SL_GrdRMS=  0.000000000000000    
_SL_Hss_Q=  0.000000000000000    
_SL_Hss_X=  0.000000000000000    
_SL_BMxOld=  0.000000000000000    
_SL_KtB=  0.000000000000000    
_SL_TROld=  0.000000000000000    
_SL_No_of_Intern=  0.000000000000000    
_SL_Hess=  0.000000000000000    
_SL_K=  0.000000000000000    
!LATTICE= -1.000000000000000    
!NEWLATTICE=  0.000000000000000    
!LATGRAD_VAR=FALSE
!SEW_LATTICE=  1.000000000000000    
!LOCAL=  0.000000000000000    
!SAVEOCC=  0.000000000000000    
!SAVEDOM= -1.000000000000000    
!RESTDOM= -1.000000000000000    
!SAVEDOM_HF= -1.000000000000000    
!RESTDOM_HF= -1.000000000000000    
!HESSREC=  5300.200000000000    
!FREQREC=  5400.200000000000    
!NMODREC=  5450.200000000000    
!GTASKS=  0.000000000000000    
!HTASKS=  5500.200000000000    
!SAVEDOM_EOM= -1.000000000000000    
!RESTDOM_EOM= -1.000000000000000    
!GRADSTATE= -1.000000000000000    
!THRCHG= 0.1000000000000000    
!DEBUG= -1.000000000000000    
!CFIT_CPHF=  0.000000000000000    
!RDOMAUX_CPHF=  3.000000000000000    
!THRAO_CPHF= 0.1000000000000000E-09
!THRMO_CPHF= 0.1000000000000000E-09
!THROV_CPHF= 0.1000000000000000E-11
!THRSW_CPHF= 0.1000000000000000E-09
!THRPROD_CPHF= 0.1000000000000000E-09
!THRAOPR_CPHF= 0.1000000000000000E-11
!CFIT_SCFGRD=  0.000000000000000    
!RDOMAUX_SCFGRD=  5.000000000000000    
!THRAO_SCFGRD= 0.1000000000000000E-09
!THRMO_SCFGRD= 0.1000000000000000E-09
!THROV_SCFGRD= 0.1000000000000000E-11
!THRSW_SCFGRD= 0.1000000000000000E-09
!THRPROD_SCFGRD= 0.1000000000000000E-09
!THRAOPR_SCFGRD= 0.1000000000000000E-11
!LOCFIT_SCF=  0.000000000000000    
!LOCFIT_MP2= -1.000000000000000    
_RIDOM=  0.000000000000000    
!CC2_METHOD=  0.000000000000000    
_BASIS2006=FALSE
_SVDDEL= -1.000000000000000    
_SVDDELA= -1.000000000000000    
_SVDDELP= -1.000000000000000    
_SVDDELF= -1.000000000000000    
_SVDDELS= -1.000000000000000    
_SVDDEL_ABS= -1.000000000000000    
_SVDDELA_ABS= -1.000000000000000    
_SVDDELP_ABS= -1.000000000000000    
_SVDDELF_ABS= -1.000000000000000    
_SVDDELS_ABS= -1.000000000000000    
_MAXBASIS=  0.000000000000000    
!OPT_CONICAL=  0.000000000000000    
!CLEARSP_JGRID=  0.000000000000000    
_GRDHYBR=  0.000000000000000    
_STATEGRAD=  1.000000000000000    
_4EXT_NDISKS=  1.000000000000000    
!ZMP=  0.000000000000000    
_MAXIT_ZMP=  500.0000000000000    
_MAXDIS_ZMP=  100.0000000000000    
_ACCU_ZMP=  14.00000000000000    
_SHIFTA_ZMP= -100.0000000000000    
!EMBEDFLAG=  1.000000000000000    
!EMBED=FALSE
!EMBED_F12=FALSE
!EMBEDNUC=  0.000000000000000    
_EMBEDENERGY=  0.000000000000000    
_KSPACETIME=  0.000000000000000    
_RSPACETIME=  0.000000000000000    
!EMBED_DFC=FALSE
!NUM_VOIDS=  0.000000000000000    
_IBODY=  0.000000000000000    
_EMBE_TOTAL=  0.000000000000000    
_EMBE_HF=  0.000000000000000    
_EMBE_CORR=  0.000000000000000    
!EMBED_PROJ=FALSE
!EMBED_TRUNC=  0.000000000000000    
!EMB_PROJ_ZMU=  1000000.000000000    
!CORRECTION=  0.000000000000000    
!CORRECTION_HF=  0.000000000000000    
!EMBED_ENERGY=  0.000000000000000    
!EMBED_NAXC=FALSE
!EMBED_AORB=  0.000000000000000    
!EMBED_NACORR=  0.000000000000000    
!EMBED_MP2=FALSE
!EMBED_TRUNC_PERTURBATION=FALSE
!EMBED_FROZEN=  0.000000000000000    
_CHANGE_BASIS=FALSE
_RESTORE_BASIS=FALSE
_FIX_EMBED_GUESS=FALSE
!EDFT=  0.000000000000000    
_IFASTLATGRAD=  0.000000000000000    
_SINDEX=  0.000000000000000    
_AVDOM_OSV=  0.000000000000000    
_AVDOM_PNO=  0.000000000000000    
_AVDOM_PAO=  0.000000000000000    
_AVDOM_LMO=  0.000000000000000    
_CC2OSV_FLAG=  0.000000000000000    
_TMADC2_FLAG=FALSE
_PROPADC2_FLAG=FALSE
_LEN_VirQ=  0.000000000000000    
_GRDCC2LR_FLAG=FALSE
_GRDADC2_FLAG=FALSE
_DMX_CC=  1.227604913244626    
_DMY_CC= -1.455946811538185    
_DMZ_CC=  0.000000000000000    
_DMX_NUC= 0.1105489783099856E-01
_DMY_NUC= 0.8069130610000030E-03
_DMZ_NUC=  0.000000000000000    
GX1=-0.2614380000000000    
GY1=-0.2876930000000000    
GZ1=  0.000000000000000    
GX2= -1.293564000000000    
GY2= 0.1758500000000000    
GZ2=  0.000000000000000    
GX3=  1.361358000000000    
GY3= 0.9791600000000000E-01
GZ3=  0.000000000000000    
NN=  1.000000000000000    
NX1=-0.4940462185540406    
NY1=-0.5436609779544963    
NZ1=  0.000000000000000    
NX2= -2.444481684596879    
NY2= 0.3323083390047661    
NZ2=  0.000000000000000    
OX3=  2.572593777485644    
OY3= 0.1850344232129126    
OZ3=  0.000000000000000    
[Atoms] Angs
N     1    7        -0.2614380000       -0.2876930000        0.0000000000
N     2    7        -1.2935640000        0.1758500000        0.0000000000
O     3    8         1.3613580000        0.0979160000        0.0000000000
[GTO]
   1 0
 s    9  1.00
  0.9046000000D+04  0.7000000346D-03
  0.1357000000D+04  0.5389000266D-02
  0.3093000000D+03  0.2740600135D-01
  0.8773000000D+02  0.1032070051D+00
  0.2856000000D+02  0.2787230138D+00
  0.1021000000D+02  0.4485400222D+00
  0.3838000000D+01  0.2782380137D+00
  0.7466000000D+00  0.1544000076D-01
  0.2248000000D+00 -0.2864000141D-02
 s    9  1.00
  0.9046000000D+04 -0.1529999886D-03
  0.1357000000D+04 -0.1207999910D-02
  0.3093000000D+03 -0.5991999553D-02
  0.8773000000D+02 -0.2454399817D-01
  0.2856000000D+02 -0.6745899497D-01
  0.1021000000D+02 -0.1580779882D+00
  0.3838000000D+01 -0.1218309909D+00
  0.7466000000D+00  0.5490029590D+00
  0.2248000000D+00  0.5788149568D+00
 s    9  1.00
  0.9046000000D+04  0.0000000000D+00
  0.1357000000D+04  0.0000000000D+00
  0.3093000000D+03  0.0000000000D+00
  0.8773000000D+02  0.0000000000D+00
  0.2856000000D+02  0.0000000000D+00
  0.1021000000D+02  0.0000000000D+00
  0.3838000000D+01  0.0000000000D+00
  0.7466000000D+00  0.0000000000D+00
  0.2248000000D+00  0.1000000000D+01
 s    1  1.00
  0.6124000000D-01  0.1000000000D+01
 p    4  1.00
  0.1355000000D+02  0.3991901233D-01
  0.2917000000D+01  0.2171690671D+00
  0.7973000000D+00  0.5103191576D+00
  0.2185000000D+00  0.4622141427D+00
 p    4  1.00
  0.1355000000D+02  0.0000000000D+00
  0.2917000000D+01  0.0000000000D+00
  0.7973000000D+00  0.0000000000D+00
  0.2185000000D+00  0.1000000000D+01
 p    1  1.00
  0.5611000000D-01  0.1000000000D+01
 d    1  1.00
  0.8170000000D+00  0.1000000000D+01
 d    1  1.00
  0.2300000000D+00  0.1000000000D+01
  
   2 0
 s    9  1.00
  0.9046000000D+04  0.7000000346D-03
  0.1357000000D+04  0.5389000266D-02
  0.3093000000D+03  0.2740600135D-01
  0.8773000000D+02  0.1032070051D+00
  0.2856000000D+02  0.2787230138D+00
  0.1021000000D+02  0.4485400222D+00
  0.3838000000D+01  0.2782380137D+00
  0.7466000000D+00  0.1544000076D-01
  0.2248000000D+00 -0.2864000141D-02
 s    9  1.00
  0.9046000000D+04 -0.1529999886D-03
  0.1357000000D+04 -0.1207999910D-02
  0.3093000000D+03 -0.5991999553D-02
  0.8773000000D+02 -0.2454399817D-01
  0.2856000000D+02 -0.6745899497D-01
  0.1021000000D+02 -0.1580779882D+00
  0.3838000000D+01 -0.1218309909D+00
  0.7466000000D+00  0.5490029590D+00
  0.2248000000D+00  0.5788149568D+00
 s    9  1.00
  0.9046000000D+04  0.0000000000D+00
  0.1357000000D+04  0.0000000000D+00
  0.3093000000D+03  0.0000000000D+00
  0.8773000000D+02  0.0000000000D+00
  0.2856000000D+02  0.0000000000D+00
  0.1021000000D+02  0.0000000000D+00
  0.3838000000D+01  0.0000000000D+00
  0.7466000000D+00  0.0000000000D+00
  0.2248000000D+00  0.1000000000D+01
 s    1  1.00
  0.6124000000D-01  0.1000000000D+01
 p    4  1.00
  0.1355000000D+02  0.3991901233D-01
  0.2917000000D+01  0.2171690671D+00
  0.7973000000D+00  0.5103191576D+00
  0.2185000000D+00  0.4622141427D+00
 p    4  1.00
  0.1355000000D+02  0.0000000000D+00
  0.2917000000D+01  0.0000000000D+00
  0.7973000000D+00  0.0000000000D+00
  0.2185000000D+00  0.1000000000D+01
 p    1  1.00
  0.5611000000D-01  0.1000000000D+01
 d    1  1.00
  0.8170000000D+00  0.1000000000D+01
 d    1  1.00
  0.2300000000D+00  0.1000000000D+01
  
   3 0
 s    9  1.00
  0.1172000000D+05  0.7100002503D-03
  0.1759000000D+04  0.5470001928D-02
  0.4008000000D+03  0.2783700981D-01
  0.1137000000D+03  0.1048000369D+00
  0.3703000000D+02  0.2830620998D+00
  0.1327000000D+02  0.4487191582D+00
  0.5025000000D+01  0.2709520955D+00
  0.1013000000D+01  0.1545800545D-01
  0.3023000000D+00 -0.2585000911D-02
 s    9  1.00
  0.1172000000D+05 -0.1600000154D-03
  0.1759000000D+04 -0.1263000121D-02
  0.4008000000D+03 -0.6267000602D-02
  0.1137000000D+03 -0.2571600247D-01
  0.3703000000D+02 -0.7092400682D-01
  0.1327000000D+02 -0.1654110159D+00
  0.5025000000D+01 -0.1169550112D+00
  0.1013000000D+01  0.5573680536D+00
  0.3023000000D+00  0.5727590551D+00
 s    9  1.00
  0.1172000000D+05  0.0000000000D+00
  0.1759000000D+04  0.0000000000D+00
  0.4008000000D+03  0.0000000000D+00
  0.1137000000D+03  0.0000000000D+00
  0.3703000000D+02  0.0000000000D+00
  0.1327000000D+02  0.0000000000D+00
  0.5025000000D+01  0.0000000000D+00
  0.1013000000D+01  0.0000000000D+00
  0.3023000000D+00  0.1000000000D+01
 s    1  1.00
  0.7896000000D-01  0.1000000000D+01
 p    4  1.00
  0.1770000000D+02  0.4301799242D-01
  0.3854000000D+01  0.2289129597D+00
  0.1046000000D+01  0.5087279104D+00
  0.2753000000D+00  0.4605309189D+00
 p    4  1.00
  0.1770000000D+02  0.0000000000D+00
  0.3854000000D+01  0.0000000000D+00
  0.1046000000D+01  0.0000000000D+00
  0.2753000000D+00  0.1000000000D+01
 p    1  1.00
  0.6856000000D-01  0.1000000000D+01
 d    1  1.00
  0.1185000000D+01  0.1000000000D+01
 d    1  1.00
  0.3320000000D+00  0.1000000000D+01
 
 
[MO]
 Sym=      1.1
 Ene=     -20.6592
 Spin= Alpha
 Occup=    2.000000
1 -0.000334067198389
2 -0.000976318160479
3 -0.000833589522113
4 -0.000868990639046
5 -0.000351794428999
6 0.000084421232528
7 0.0
8 0.006806615132813
9 -0.001692594233923
10 0.0
11 -0.000928436638530
12 -0.000333579337926
13 0.0
14 0.000193406377657
15 -0.000096143979535
16 -0.000097262398123
17 0.000063069767922
18 0.0
19 0.0
20 0.001891527418633
21 -0.001177998136637
22 -0.000713529281996
23 0.002302087322213
24 0.0
25 0.0
26 -0.000201774079337
27 -0.000609535714246
28 0.006377315801764
29 0.000026297399702
30 0.000308063940129
31 -0.000026651829910
32 0.0
33 0.003205474585656
34 0.000304442310917
35 0.0
36 0.000196090110696
37 0.000193545453193
38 0.0
39 0.000062548226675
40 -0.000060603610262
41 -0.000001944616413
42 0.000046214293090
43 0.0
44 0.0
45 0.000695280432471
46 -0.000749132517929
47 0.000053852085458
48 -0.000023145445121
49 0.0
50 0.0
51 1.00106640940025
52 0.004002978755716
53 -0.008605921265315
54 0.001483754012316
55 -0.000646880943241
56 -0.000096331138429
57 0.0
58 0.004378972618658
59 0.000933135615211
60 0.0
61 -0.000360307799067
62 -0.000125814636905
63 0.0
64 -0.000001504994867
65 -0.000231166452309
66 0.000232671447176
67 0.000080761021473
68 0.0
69 0.0
70 -0.001358867056294
71 0.000694809975760
72 0.000664057080534
73 -0.000526380925525
74 0.0
75 0.0
 Sym=      2.1
 Ene=     -15.6800
 Spin= Alpha
 Occup=    2.000000
1 0.99695896568482
2 -0.001753543792793
3 -0.026930782418837
4 -0.013572649877487
5 -0.007275467010785
6 0.004561705839504
7 0.0
8 0.013089919496263
9 -0.005324314509292
10 0.0
11 0.002247100135808
12 -0.001222027277833
13 0.0
14 0.000735925523929
15 -0.000208312948732
16 -0.000527612575198
17 -0.000811099834104
18 0.0
19 0.0
20 -0.004905924270749
21 0.002219074507351
22 0.002686849763398
23 0.002542938223940
24 0.0
25 0.0
26 0.10068436419252
27 0.000742388099388
28 0.021685571237073
29 0.011578921461846
30 0.000164561183460
31 0.000682983421815
32 0.0
33 0.008204773680142
34 -0.005323838961151
35 0.0
36 0.002098950005202
37 -0.000934770665292
38 0.0
39 -0.000448728540924
40 0.000171194704799
41 0.000277533836125
42 0.000339235895534
43 0.0
44 0.0
45 0.000501200102404
46 0.000124718437728
47 -0.000625918540132
48 -0.001257234973590
49 0.0
50 0.0
51 -0.000031204326978
52 0.001340719191153
53 0.001915319405215
54 0.001930753761597
55 0.003048222743440
56 0.001156631886364
57 0.0
58 -0.000950940790985
59 -0.001107949785801
60 0.0
61 -0.000649587778243
62 -0.000042268724147
63 0.0
64 -0.000100650018040
65 0.000004387387294
66 0.000096262630745
67 -0.000126088506543
68 0.0
69 0.0
70 -0.000167518816179
71 0.000295277039062
72 -0.000127758222883
73 0.000445324600641
74 0.0
75 0.0
 Sym=      3.1
 Ene=     -15.6649
 Spin= Alpha
 Occup=    2.000000
1 -0.10180807681785
2 0.000919024310692
3 0.020830396365018
4 0.007053141398035
5 -0.000463846034065
6 0.000172028899064
7 0.0
8 -0.009306064862160
9 0.004945073542660
10 0.0
11 -0.001454145718441
12 0.000684424105837
13 0.0
14 -0.000389802530517
15 0.000105331517932
16 0.000284471012585
17 0.000356572370976
18 0.0
19 0.0
20 0.000061357143482
21 0.000402456798704
22 -0.000463813942186
23 -0.001145267838076
24 0.0
25 0.0
26 0.99684444048820
27 0.009025484760608
28 -0.026220850055046
29 -0.007697013026675
30 0.005769184688107
31 -0.002441756259503
32 0.0
33 -0.014399822387614
34 0.005302477820594
35 0.0
36 -0.001636149856873
37 0.000721456270223
38 0.0
39 0.000870060175900
40 -0.000268975866584
41 -0.000601084309316
42 -0.000780944102342
43 0.0
44 0.0
45 -0.003216822583381
46 0.001268981692920
47 0.001947840890462
48 0.002181758571499
49 0.0
50 0.0
51 -0.000073095849400
52 -0.000534613522604
53 0.000960120428629
54 0.000431900643257
55 -0.000052970044377
56 0.000100187034305
57 0.0
58 -0.000502770823990
59 -0.000581553609766
60 0.0
61 -0.000076724928887
62 -0.000121923607084
63 0.0
64 0.000008891776056
65 -0.000028872898510
66 0.000019981122454
67 -0.000052700191488
68 0.0
69 0.0
70 -0.000004887862330
71 0.000101672435268
72 -0.000096784572939
73 0.000399802022014
74 0.0
75 0.0
 Sym=      4.1
 Ene=      -1.2626
 Spin= Alpha
 Occup=    2.000000
1 -0.001700082098594
2 0.054553264451992
3 0.005345468526388
4 0.007113967774886
5 0.020519907971221
6 0.008152221964798
7 0.0
8 -0.078685915403186
9 0.013403182265532
10 0.0
11 0.000084411524730
12 0.002152730752575
13 0.0
14 0.007186702268180
15 -0.003217284065286
16 -0.003969418202895
17 0.002433647681070
18 0.0
19 0.0
20 -0.009159820242057
21 0.006042764978368
22 0.003117055263690
23 -0.019621955063125
24 0.0
25 0.0
26 0.001411639641405
27 0.063129229765824
28 -0.079295858919719
29 -0.013183761560067
30 -0.010404718578954
31 -0.008093707230447
32 0.0
33 -0.039012886900296
34 0.005503091743437
35 0.0
36 -0.004496927532021
37 -0.000465806822372
38 0.0
39 0.000343626827233
40 -0.000283960602797
41 -0.000059666224437
42 0.000128113379593
43 0.0
44 0.0
45 -0.007376408647315
46 0.006421542785184
47 0.000954865862130
48 0.002176069646355
49 0.0
50 0.0
51 -0.003014281168734
52 0.98067998639620
53 0.026549413027158
54 0.029683955407236
55 0.058294632490343
56 0.021132564988003
57 0.0
58 -0.032529781555197
59 -0.004733521543082
60 0.0
61 0.003732192902681
62 0.001668901576903
63 0.0
64 0.000572838353300
65 -0.000496481503505
66 -0.000076356849794
67 0.000058687346912
68 0.0
69 0.0
70 0.011399963381444
71 -0.009122235896446
72 -0.002277727484999
73 0.003468092129045
74 0.0
75 0.0
 Sym=      5.1
 Ene=      -0.9513
 Spin= Alpha
 Occup=    2.000000
1 -0.007764224563453
2 0.066395945334148
3 -0.16981344341117
4 -0.080534850423072
5 -0.023533837104619
6 0.010737253930154
7 0.0
8 0.10218849243439
9 -0.050392771281620
10 0.0
11 0.020193756305199
12 -0.010012927957984
13 0.0
14 0.007955670911323
15 -0.002488068325739
16 -0.005467602585583
17 -0.007512614787041
18 0.0
19 0.0
20 -0.003995361603406
21 -0.001557617731928
22 0.005552979335334
23 0.015319963141870
24 0.0
25 0.0
26 -0.009635240890394
27 0.88993718862762
28 0.14831805795460
29 0.12986410643420
30 -0.31837994073082
31 0.14971938189518
32 0.0
33 0.086357199506857
34 -0.028436089532878
35 0.0
36 0.009369218540154
37 -0.003189471293414
38 0.0
39 -0.003250184284935
40 0.001127380598894
41 0.002122803686041
42 0.002998555025884
43 0.0
44 0.0
45 0.013945771845492
46 -0.006756174836456
47 -0.007189597009036
48 -0.007203079247358
49 0.0
50 0.0
51 0.000445161283838
52 -0.060919792543839
53 -0.011947125873689
54 -0.009479599800778
55 -0.026099875178308
56 -0.011041005489315
57 0.0
58 0.007007857856716
59 0.002206350829562
60 0.0
61 -0.000067390254981
62 0.001024672965131
63 0.0
64 0.000279555980140
65 -0.000054880897078
66 -0.000224675083062
67 0.000547530329100
68 0.0
69 0.0
70 0.000022368089883
71 0.000540495032705
72 -0.000562863122588
73 -0.001102379923285
74 0.0
75 0.0
 Sym=      1.2
 Ene=      -0.5613
 Spin= Alpha
 Occup=    1.996186
1 0.0
2 0.0
3 0.0
4 0.0
5 0.0
6 0.0
7 0.084187827207638
8 0.0
9 0.0
10 0.000110275059664
11 0.0
12 0.0
13 -0.003938909203944
14 0.0
15 0.0
16 0.0
17 0.0
18 0.010331187965355
19 0.002283367514480
20 0.0
21 0.0
22 0.0
23 0.0
24 0.000348588685255
25 0.003161883614017
26 0.0
27 0.0
28 0.0
29 0.0
30 0.0
31 0.0
32 -0.031897519595309
33 0.0
34 0.0
35 -0.016196056838523
36 0.0
37 0.0
38 -0.006055467306868
39 0.0
40 0.0
41 0.0
42 0.0
43 0.002247636175955
44 -0.000947832059537
45 0.0
46 0.0
47 0.0
48 0.0
49 -0.003683567975457
50 0.002534761964149
51 0.0
52 0.0
53 0.0
54 0.0
55 0.0
56 0.0
57 0.95162813123905
58 0.0
59 0.0
60 0.015672371303066
61 0.0
62 0.0
63 0.060988117711408
64 0.0
65 0.0
66 0.0
67 0.0
68 -0.004697552672840
69 -0.000892427832422
70 0.0
71 0.0
72 0.0
73 0.0
74 -0.013234144695146
75 -0.002161924223120
 Sym=      6.1
 Ene=      -1.1435
 Spin= Alpha
 Occup=    1.987566
1 -0.002864374015088
2 -0.90733949821997
3 -0.059639212992396
4 -0.12215876352016
5 0.031349612776401
6 0.037693186147140
7 0.0
8 0.031402881980898
9 -0.002022811897655
10 0.0
11 0.004867311355206
12 -0.000261401058523
13 0.0
14 -0.013110222484037
15 0.006008081725686
16 0.007102140758351
17 0.003518978997074
18 0.0
19 0.0
20 -0.035198541065973
21 0.017989303326337
22 0.017209237739637
23 0.006771666248826
24 0.0
25 0.0
26 0.007760269391477
27 -0.048117226398740
28 0.30035734986548
29 0.11229808272564
30 -0.35275150759257
31 0.21495164787671
32 0.0
33 0.15555978314395
34 -0.095563714754245
35 0.0
36 0.020274659037725
37 -0.009531062962544
38 0.0
39 -0.018596449521093
40 0.005451757002157
41 0.013144692518936
42 0.018332522191389
43 0.0
44 0.0
45 0.007145275874031
46 0.002300835694116
47 -0.009446111568147
48 -0.015038874574644
49 0.0
50 0.0
51 0.002432020758769
52 0.10673319293110
53 0.038689143337230
54 0.034791243914767
55 0.13931068799411
56 0.047077155864561
57 0.0
58 -0.023231950753420
59 -0.010167509152761
60 0.0
61 -0.006732341590737
62 -0.004797880646537
63 0.0
64 -0.005883729138361
65 0.002636421128700
66 0.003247308009661
67 -0.003539279763335
68 0.0
69 0.0
70 -0.005892137841762
71 0.003205375029506
72 0.002686762812256
73 0.000283008044848
74 0.0
75 0.0
 Sym=      7.1
 Ene=      -0.7996
 Spin= Alpha
 Occup=    1.973243
1 0.004676357550122
2 0.10836140421412
3 0.33904746366517
4 0.15610403314920
5 0.65990565318492
6 -0.38911424794610
7 0.0
8 -0.25555709867454
9 0.094070366063038
10 0.0
11 -0.044495168814310
12 0.010695496480725
13 0.0
14 -0.010018089697522
15 -0.001135929839543
16 0.011154019537065
17 0.024827997515862
18 0.0
19 0.0
20 0.007523872447847
21 -0.002670296704980
22 -0.004853575742867
23 -0.022006572667791
24 0.0
25 0.0
26 0.004502585742802
27 -0.27180220814121
28 -0.005802155735509
29 -0.10070889294123
30 -0.54691384755558
31 0.15969859147726
32 0.0
33 0.014144151793959
34 0.002373206545374
35 0.0
36 -0.018135255101599
37 0.012091321544024
38 0.0
39 -0.022908540247659
40 0.009423491806619
41 0.013485048441040
42 0.014294099261407
43 0.0
44 0.0
45 -0.020345793919226
46 0.008105797645364
47 0.012239996273862
48 0.016711361031491
49 0.0
50 0.0
51 -0.006448201836678
52 -0.078656902403702
53 -0.012423151906446
54 -0.003161362910965
55 -0.23581863901861
56 -0.089152338257698
57 0.0
58 -0.008384885562396
59 0.005422572427909
60 0.0
61 0.000409324425962
62 -0.004998861015268
63 0.0
64 0.007926040609032
65 -0.003336579462809
66 -0.004589461146224
67 0.005745099301038
68 0.0
69 0.0
70 0.019171025234760
71 -0.008864283131947
72 -0.010306742102814
73 0.008687201980598
74 0.0
75 0.0
 Sym=      8.1
 Ene=      -0.6146
 Spin= Alpha
 Occup=    1.935396
1 0.001169174780322
2 0.063559821715269
3 0.045644323940053
4 0.042196009079329
5 0.32531991384188
6 0.56402444484998
7 0.0
8 -0.097423968922667
9 -0.034021462441384
10 0.0
11 -0.011947726029429
12 0.008069176938624
13 0.0
14 -0.022982976953079
15 0.025208273164951
16 -0.002225296211872
17 -0.017487437683056
18 0.0
19 0.0
20 -0.015418872488761
21 0.016083232291052
22 -0.000664359802291
23 -0.017318278647644
24 0.0
25 0.0
26 0.001321712357947
27 -0.026862234342567
28 -0.060835472490740
29 -0.046913163191372
30 0.22858058277020
31 0.57513248341155
32 0.0
33 -0.056352559714226
34 -0.044613143055323
35 0.0
36 -0.004442284893338
37 0.016344577203803
38 0.0
39 0.024637158847642
40 -0.024891936201219
41 0.000254777353577
42 0.026700051010729
43 0.0
44 0.0
45 0.000845987185770
46 -0.004509735163397
47 0.003663747977627
48 0.012307721024169
49 0.0
50 0.0
51 -0.005420058309155
52 -0.058824184753302
53 -0.000456017731573
54 -0.002629437008242
55 -0.16874538614281
56 0.015102432390018
57 0.0
58 -0.007559147269973
59 -0.007529636712768
60 0.0
61 0.001395531476879
62 -0.000238365238891
63 0.0
64 0.007192095496899
65 -0.003839662849013
66 -0.003352432647885
67 -0.000622068532730
68 0.0
69 0.0
70 0.017239690518689
71 -0.008408727111451
72 -0.008830963407237
73 0.005436894519226
74 0.0
75 0.0
 Sym=      2.2
 Ene=      -0.5848
 Spin= Alpha
 Occup=    1.933970
1 0.0
2 0.0
3 0.0
4 0.0
5 0.0
6 0.0
7 0.65673554837479
8 0.0
9 0.0
10 -0.064369965112535
11 0.0
12 0.0
13 0.006621615754957
14 0.0
15 0.0
16 0.0
17 0.0
18 -0.033147398587239
19 0.017850672493263
20 0.0
21 0.0
22 0.0
23 0.0
24 -0.011176580338726
25 0.006227680300115
26 0.0
27 0.0
28 0.0
29 0.0
30 0.0
31 0.0
32 0.64810932895199
33 0.0
34 0.0
35 -0.056720348721459
36 0.0
37 0.0
38 0.012479342082255
39 0.0
40 0.0
41 0.0
42 0.0
43 0.036988329115883
44 -0.016308029179291
45 0.0
46 0.0
47 0.0
48 0.0
49 0.013972218197159
50 -0.006252490801206
51 0.0
52 0.0
53 0.0
54 0.0
55 0.0
56 0.0
57 -0.090816892355742
58 0.0
59 0.0
60 -0.009838526785754
61 0.0
62 0.0
63 -0.012811158687055
64 0.0
65 0.0
66 0.0
67 0.0
68 -0.002707282493884
69 -0.000387523905859
70 0.0
71 0.0
72 0.0
73 0.0
74 -0.002257424392187
75 -0.001105236590629
 Sym=      9.1
 Ene=      -0.1803
 Spin= Alpha
 Occup=    1.004743
1 0.006421948070244
2 0.32998352127274
3 0.15570625553713
4 0.20918691872578
5 0.24757615919550
6 -0.17542678679012
7 0.0
8 0.051270805886835
9 0.006284315018491
10 0.0
11 0.017151931620028
12 0.016867731463088
13 0.0
14 -0.035235731854328
15 0.018856349934675
16 0.016379381919653
17 -0.008338385121356
18 0.0
19 0.0
20 0.000935062904451
21 -0.000549796307810
22 -0.000385266596641
23 0.006855544268304
24 0.0
25 0.0
26 -0.006237222311376
27 -0.11060652467539
28 0.063744906483813
29 -0.065562290138037
30 -0.037737953129543
31 0.29962982832903
32 0.0
33 0.027888936013201
34 -0.007305761352727
35 0.0
36 -0.017226709223909
37 0.014497424705374
38 0.0
39 0.000926751117190
40 -0.002675372290544
41 0.001748621173354
42 0.003910670763881
43 0.0
44 0.0
45 0.003789935258772
46 -0.004332900578815
47 0.000542965320043
48 0.005040618802781
49 0.0
50 0.0
51 -0.005210950001237
52 -0.16297507926811