
 Primary working directories    : /scratch/kmoore
 Secondary working directories  : /scratch/kmoore
 Wavefunction directory         : /scratch/kmoore/
 Main file repository           : /scratch/kmoore/

 SHA1      : b6b3a4772808bb2d43777f23454e145ddfe12dc3
 NAME      : 2015.1.1
 ARCHNAME  : linux/x86_64
 FC        : /soft/mvapich2/2.2b_psm/intel-15.0/bin/mpif90
 BLASLIB   : -L/soft/intel/15.0.1/composer_xe_2015.0.090/mkl/lib/intel64 -lmkl_intel_ilp64 -lmkl_sequential -lmkl_core
 id        : anlgov

 Nodes     nprocs
 b442         7
 Number of processes for MPI-2 version of Molpro:   nprocs(total)=    8   nprocs(compute)=    7   nprocs(helper)=    1

 Using customized tuning parameters: mindgm=1; mindgv=20; mindgc=4; mindgr=1; noblas=0; minvec=7
 default implementation of scratch files=sf  

 ***,CASPT2 calculation for the singlet state
 memory,1000,m
 
 noorient
 nosym
 geometry
 N     -0.265504206808349    -0.153017534925573     0.000000000000000
 N     -1.371144514043529     0.092681100636159     0.000000000000000
 O      1.432838789244959     0.052822809411175     0.000000000000000
 end
 
 nn(1)=1
 nn(2)=2
 nn(3)=3
 
 basis=cc-pVDZ
 {hf,maxit=1000
   wf,22,1,0,0}
 {mp2}
 {freq,noproject
  print,hessian}
 

 Variables initialized (889), CPU time= 0.01 sec
 Commands  initialized (702), CPU time= 0.01 sec, 572 directives.
 Default parameters read. Elapsed time= 0.10 sec

 Checking input...
 Passed
1


                                         ***  PROGRAM SYSTEM MOLPRO  ***
                                       Copyright, TTI GmbH Stuttgart, 2015
                                    Version 2015.1 linked Jan  8 2016 07:59:11


 **********************************************************************************************************************************
 LABEL *   CASPT2 calculation for the singlet state                                      
  64 bit mpp version                                                                     DATE: 19-Mar-19          TIME: 13:00:54  
 **********************************************************************************************************************************

 SHA1:             b6b3a4772808bb2d43777f23454e145ddfe12dc3
 **********************************************************************************************************************************

 Variable memory set to 1000000000 words,  buffer space   230000 words

 ZSYMEL=NOSYM
 

Geometry recognized as XYZ

 SETTING NN(1)          =         1.00000000                                  
 SETTING NN(2)          =         2.00000000                                  
 SETTING NN(3)          =         3.00000000                                  
 SETTING BASIS          =    CC-PVDZ


 Recomputing integrals since basis changed


 Using spherical harmonics

 Library entry N      S cc-pVDZ              selected for orbital group  1
 Library entry N      P cc-pVDZ              selected for orbital group  1
 Library entry N      D cc-pVDZ              selected for orbital group  1
 Library entry O      S cc-pVDZ              selected for orbital group  2
 Library entry O      P cc-pVDZ              selected for orbital group  2
 Library entry O      D cc-pVDZ              selected for orbital group  2

1PROGRAM * SEWARD (Integral evaluation for generally contracted gaussian basis sets)     Author: Roland Lindh, 1990

 Geometry written to block  1 of record 700


 Point group  C1  



 ATOMIC COORDINATES

 NR  ATOM    CHARGE       X              Y              Z

   1  N       7.00   -0.501730236   -0.289161233    0.000000000
   2  N       7.00   -2.591087609    0.175141897    0.000000000
   3  O       8.00    2.707672892    0.099820643    0.000000000

 Bond lengths in Bohr (Angstrom)

 1-2  2.140325122  1-3  3.232889627
     ( 1.132611279)     ( 1.710771516)

 Bond angles

  2-1-3  160.56057162

 NUCLEAR CHARGE:                   22
 NUMBER OF PRIMITIVE AOS:          81
 NUMBER OF SYMMETRY AOS:           78
 NUMBER OF CONTRACTIONS:           42   (  42A   )
 NUMBER OF CORE ORBITALS:           3   (   3A   )
 NUMBER OF VALENCE ORBITALS:       12   (  12A   )


 NUCLEAR REPULSION ENERGY   50.78312459

 EXTRA SYMMETRY OF AOS IN SYMMETRY 1:   1 1 1 1 1 2 1 1 2 1   1 2 1 2 1 1 1 1 1 2   1 1 2 1 1 2 1 2 1 1   1 1 1 2 1 1 2 1 1 2
                                        1 2

 Eigenvalues of metric

         1 0.365E-02 0.213E-01 0.385E-01 0.675E-01 0.892E-01 0.118E+00 0.118E+00 0.133E+00


 Contracted 2-electron integrals neglected if value below      1.0D-11
 AO integral compression algorithm  1   Integral accuracy      1.0D-11

     1.835 MB (compressed) written to integral file ( 60.4%)

     Node minimum: 0.262 MB, node maximum: 0.262 MB


 NUMBER OF SORTED TWO-ELECTRON INTEGRALS:      58695.     BUFFER LENGTH:  32768
 NUMBER OF SEGMENTS:   1  SEGMENT LENGTH:      58695      RECORD LENGTH: 524288

 Memory used in sort:       0.62 MW

 SORT1 READ      544483. AND WROTE       30568. INTEGRALS IN      1 RECORDS. CPU TIME:     0.00 SEC, REAL TIME:     0.01 SEC
 SORT2 READ      205882. AND WROTE      408156. INTEGRALS IN      7 RECORDS. CPU TIME:     0.01 SEC, REAL TIME:     0.00 SEC

 Node minimum:       57921.  Node maximum:       58695. integrals

 OPERATOR DM      FOR CENTER  0  COORDINATES:    0.000000    0.000000    0.000000


 **********************************************************************************************************************************
 DATASETS  * FILE   NREC   LENGTH (MB)   RECORD NAMES
              1      18       19.17       500      610      700      900      950      970     1000      129      960     1100   
                                          VAR    BASINP    GEOM    SYMINP    ZMAT    AOBASIS   BASIS     P2S    ABASIS      S 
                                         1400     1410     1200     1210     1080     1600     1650     1700   
                                           T        V       H0       H01     AOSYM     SMH    MOLCAS    OPER   

 PROGRAMS   *        TOTAL       INT
 CPU TIMES  *         0.42      0.30
 REAL TIME  *         1.00 SEC
 DISK USED  *        30.49 MB      
 GA USED    *         0.00 MB       (max)       0.00 MB       (current)
 **********************************************************************************************************************************

1PROGRAM * RHF-SCF (CLOSED SHELL)       Authors: W. Meyer, H.-J. Werner


 NUMBER OF ELECTRONS:      11+   11-    SPACE SYMMETRY=1    SPIN SYMMETRY: Singlet 
 CONVERGENCE THRESHOLDS:    1.00E-06 (Density)    1.00E-07 (Energy)
 MAX. NUMBER OF ITERATIONS:     1000
 INTERPOLATION TYPE:            DIIS
 INTERPOLATION STEPS:              2 (START)      1 (STEP)
 LEVEL SHIFTS:                  0.00 (CLOSED)  0.00 (OPEN) 



 Orbital guess generated from atomic densities. Full valence occupancy:   15

 Molecular orbital dump at record        2100.2

 Initial occupancy:  11

 ITERATION    DDIFF          GRAD             ENERGY        2-EL.EN.            DIPOLE MOMENTS         DIIS   ORB.
    1      0.000D+00      0.000D+00      -183.36671472    230.860218   -2.54270   -0.31192   -0.00000    0    start
    2      0.000D+00      0.229D-01      -183.43078038    234.196041    0.29405    0.14873    0.00000    1    diag
    3      0.562D-01      0.235D-01      -183.60487071    233.808106   -0.83414   -0.05173    0.00000    2    diag
    4      0.310D-01      0.345D-02      -183.61924083    233.620568   -0.70209   -0.04416    0.00000    3    diag
    5      0.887D-02      0.139D-02      -183.62181049    233.844689   -0.61710   -0.04373    0.00000    4    diag
    6      0.464D-02      0.355D-03      -183.62193728    233.829776   -0.59704   -0.04164    0.00000    5    diag
    7      0.110D-02      0.108D-03      -183.62194316    233.828649   -0.59104   -0.04328    0.00000    6    diag
    8      0.220D-03      0.600D-04      -183.62194474    233.833066   -0.59406   -0.04275    0.00000    7    diag
    9      0.973D-04      0.234D-04      -183.62194552    233.832493   -0.59341   -0.04303    0.00000    8    diag
   10      0.653D-04      0.123D-04      -183.62194599    233.832446   -0.59358   -0.04317    0.00000    9    orth
   11      0.552D-04      0.814D-05      -183.62194630    233.832520   -0.59367   -0.04329    0.00000    9    diag
   12      0.537D-04      0.522D-05      -183.62194648    233.832604   -0.59385   -0.04340    0.00000    9    diag
   13      0.631D-04      0.173D-05      -183.62194649    233.832582   -0.59389   -0.04343   -0.00000    9    diag
   14      0.192D-04      0.511D-06      -183.62194649    233.832586   -0.59389   -0.04344    0.00000    9    diag
   15      0.249D-05      0.262D-06      -183.62194649    233.832581   -0.59389   -0.04344    0.00000    9    diag
   16      0.188D-05      0.589D-07      -183.62194649    233.832584   -0.59389   -0.04344   -0.00000    9    diag
   17      0.376D-06      0.133D-07      -183.62194649    233.832583   -0.59389   -0.04344    0.00000    0    orth

 Final occupancy:  11

 !RHF STATE 1.1 Energy               -183.621946489303
 Nuclear energy                        50.78312459
 One-electron energy                 -351.32136254
 Two-electron energy                  116.91629146
 Virial quotient                       -1.00295598
 !RHF STATE 1.1 Dipole moment          -0.59389318    -0.04343523     0.00000000
 Dipole moment /Debye                  -1.50942702    -0.11039410     0.00000000

 Orbital energies:

         1.1          2.1          3.1          4.1          5.1          6.1          7.1          8.1          9.1         10.1
    -20.649777   -15.764537   -15.745973    -1.496251    -1.252667    -0.823954    -0.672068    -0.651175    -0.650860    -0.518790

        11.1         12.1         13.1
     -0.518338     0.074138     0.120910

 HOMO     11.1    -0.518338 =     -14.1047eV
 LUMO     12.1     0.074138 =       2.0174eV
 LUMO-HOMO         0.592476 =      16.1221eV


 **********************************************************************************************************************************
 DATASETS  * FILE   NREC   LENGTH (MB)   RECORD NAMES
              1      18       19.17       500      610      700      900      950      970     1000      129      960     1100   
                                          VAR    BASINP    GEOM    SYMINP    ZMAT    AOBASIS   BASIS     P2S    ABASIS      S 
                                         1400     1410     1200     1210     1080     1600     1650     1700   
                                           T        V       H0       H01     AOSYM     SMH    MOLCAS    OPER   

              2       4        0.44       700     1000      520     2100   
                                         GEOM     BASIS   MCVARS     RHF  

 PROGRAMS   *        TOTAL        HF       INT
 CPU TIMES  *         0.45      0.03      0.30
 REAL TIME  *         1.04 SEC
 DISK USED  *       168.94 MB      
 SF USED    *         0.01 MB      
 GA USED    *         0.00 MB       (max)       0.00 MB       (current)
 **********************************************************************************************************************************


1PROGRAM * MP2 (Closed-shell)     Authors: C. Hampel, H.-J. Werner, 1991, M. Deegan, P.J. Knowles, 1992


 Convergence thresholds:  THRVAR = 1.00D-12  THRDEN = 1.00D-08

 Number of core orbitals:           3 (   3 )
 Number of closed-shell orbitals:   8 (   8 )
 Number of external orbitals:      31 (  31 )

 Molecular orbitals read from record     2100.2  Type=RHF/CANONICAL (state 1.1)

 Number of N-1 electron functions:               8
 Number of N-2 electron functions:              36
 Number of singly external CSFs:               248
 Number of doubly external CSFs:             30876
 Total number of CSFs:                       31125

 Length of J-op  integral file:               0.00 MB
 Length of K-op  integral file:               0.12 MB

 Integral transformation finished. Total CPU:   0.01 sec, npass=  1  Memory used:   0.20 MW

 Memory needed for MP2:                      0.01 MW

 SCS-MP2 correlation energy:           -0.459209205650   (PS=  1.200000  PT=  0.333333)
 SCS-MP2 total energy:               -184.081155694953


  Reference energy                   -183.621946489303
  MP2 singlet pair energy              -0.287249210218
  MP2 triplet pair energy              -0.184034175089
  MP2 correlation energy               -0.471283385306

 !MP2 total energy                   -184.093229874609

 KEXT needed  1 integral passes. Memory used:   0.18 MW  CPU time:      0.01 sec


 Starting Coupled-perturbed Hartree-Fock, convergence threshold= 1.0D-06

 ITER   MIC  DIIS      VAR         VARC       CPU
   1     0     1    0.11D+00    0.19D-02     0.00
   2     9     2    0.71D-03    0.46D-03     0.00
   3     3     3    0.51D-04    0.51D-05     0.00
   4     8     4    0.16D-05    0.34D-06     0.01
   5     1     5    0.73D-06    0.62D-08     0.02

 CPHF convergence reached in  5 macroiterations and   21 microiterations.   Accuracy: 7.2702D-07

 CPHF solution written to record  4101.2

 Dipole moments (unrelaxed):           -0.59967054    -0.04552834     0.00000000
 Orbital relaxation contribution:      -0.16112678    -0.01985452    -0.00000000
 !!MP2 STATE 1.1 Dipole moment         -0.76079732    -0.06538287     0.00000000
 Dipole moment /Debye                  -1.93362725    -0.16617579     0.00000000
 
 CPU-time for density and lagrangian:                  0.00 sec
 CPU-time for coupled-perturbed hartree-fock:          0.02 sec

 MP2 Gradient info saved on record         5200.1


 **********************************************************************************************************************************
 DATASETS  * FILE   NREC   LENGTH (MB)   RECORD NAMES
              1      20       20.30       500      610      700      900      950      970     1000      129      960     1100   
                                          VAR    BASINP    GEOM    SYMINP    ZMAT    AOBASIS   BASIS     P2S    ABASIS      S 
                                         1400     1410     1200     1210     1080     1600     1650     1700     1380     5200   
                                           T        V       H0       H01     AOSYM     SMH    MOLCAS    OPER     JKOP      MP2  

              2       6        0.51       700     1000      520     2100     4100     4101   
                                         GEOM     BASIS   MCVARS     RHF     CPHF     CPHF   

 PROGRAMS   *        TOTAL       MP2        HF       INT
 CPU TIMES  *         0.52      0.06      0.03      0.30
 REAL TIME  *         1.13 SEC
 DISK USED  *       176.62 MB      
 SF USED    *         3.00 MB      
 GA USED    *         0.00 MB       (max)       0.00 MB       (current)
 **********************************************************************************************************************************


 PROGRAM * HESSIAN

 Computing numerical hessian using default procedure for command MP2

 Symmetry elements for unique displacements: Z  

 Using no symmetry in wavefunction calculations

 Running default procedure: HF-SCF000  MP2
 

 Numerically approximating hessian using central gradient differences
 Task   1   Incrementing variable GX1   by   0.010 AU
 Task   2   Incrementing variable GX1   by  -0.010 AU
 Task   3   Incrementing variable GY1   by   0.010 AU
 Task   4   Incrementing variable GY1   by  -0.010 AU
 Task   5   Incrementing variable GZ1   by   0.010 AU (Skipping negative increment due to symmetry).
 Task   6   Incrementing variable GX2   by   0.010 AU
 Task   7   Incrementing variable GX2   by  -0.010 AU
 Task   8   Incrementing variable GY2   by   0.010 AU
 Task   9   Incrementing variable GY2   by  -0.010 AU
 Task  10   Incrementing variable GZ2   by   0.010 AU (Skipping negative increment due to symmetry).
 Task  11   Incrementing variable GX3   by   0.010 AU
 Task  12   Incrementing variable GX3   by  -0.010 AU
 Task  13   Incrementing variable GY3   by   0.010 AU
 Task  14   Incrementing variable GY3   by  -0.010 AU
 Task  15   Incrementing variable GZ3   by   0.010 AU (Skipping negative increment due to symmetry).

 Task list generated. Total number of displacements:     15

 Starting task   1.  CPU=     0.00 sec, Elapsed=     0.00 sec
 Incrementing variable GX1              by  0.005292 ANG   to   -0.260212 ANG


 Recomputing integrals since geometry changed

1PROGRAM * SEWARD (Integral evaluation for generally contracted gaussian basis sets)     Author: Roland Lindh, 1990

 Geometry written to block  1 of record 700


 Point group  C1  



 ATOMIC COORDINATES

 NR  ATOM    CHARGE       X              Y              Z

   1  N       7.00   -0.491730236   -0.289161233    0.000000000
   2  N       7.00   -2.591087609    0.175141897    0.000000000
   3  O       8.00    2.707672892    0.099820643    0.000000000

 Bond lengths in Bohr (Angstrom)

 1-2  2.150088086  1-3  3.222962500
     ( 1.137777616)     ( 1.705518307)

 Bond angles

  2-1-3  160.59698991

 NUCLEAR CHARGE:                   22
 NUMBER OF PRIMITIVE AOS:          81
 NUMBER OF SYMMETRY AOS:           78
 NUMBER OF CONTRACTIONS:           42   (  42A   )
 NUMBER OF CORE ORBITALS:           3   (   3A   )
 NUMBER OF VALENCE ORBITALS:       12   (  12A   )


 NUCLEAR REPULSION ENERGY   50.73252427

 EXTRA SYMMETRY OF AOS IN SYMMETRY 1:   1 1 1 1 1 2 1 1 2 1   1 2 1 2 1 1 1 1 1 2   1 1 2 1 1 2 1 2 1 1   1 1 1 2 1 1 2 1 1 2
                                        1 2

 Eigenvalues of metric

         1 0.371E-02 0.211E-01 0.386E-01 0.685E-01 0.899E-01 0.118E+00 0.118E+00 0.134E+00


 Contracted 2-electron integrals neglected if value below      1.0D-11
 AO integral compression algorithm  1   Integral accuracy      1.0D-11

     1.835 MB (compressed) written to integral file ( 60.4%)

     Node minimum: 0.262 MB, node maximum: 0.262 MB


 NUMBER OF SORTED TWO-ELECTRON INTEGRALS:      58695.     BUFFER LENGTH:  32768
 NUMBER OF SEGMENTS:   1  SEGMENT LENGTH:      58695      RECORD LENGTH: 524288

 Memory used in sort:       0.62 MW

 SORT1 READ      544483. AND WROTE       30568. INTEGRALS IN      1 RECORDS. CPU TIME:     0.00 SEC, REAL TIME:     0.01 SEC
 SORT2 READ      205882. AND WROTE      408156. INTEGRALS IN      7 RECORDS. CPU TIME:     0.01 SEC, REAL TIME:     0.01 SEC

 Node minimum:       57921.  Node maximum:       58695. integrals

 OPERATOR DM      FOR CENTER  0  COORDINATES:    0.000000    0.000000    0.000000
1PROGRAM * RHF-SCF (CLOSED SHELL)       Authors: W. Meyer, H.-J. Werner


 NUMBER OF ELECTRONS:      11+   11-    SPACE SYMMETRY=1    SPIN SYMMETRY: Singlet 
 CONVERGENCE THRESHOLDS:    1.00E-07 (Density)    1.00E-08 (Energy)
 MAX. NUMBER OF ITERATIONS:     1000
 INTERPOLATION TYPE:            DIIS
 INTERPOLATION STEPS:              2 (START)      1 (STEP)
 LEVEL SHIFTS:                  0.00 (CLOSED)  0.00 (OPEN) 

 Number of closed-shell orbitals:   11 (  11 )


 Molecular orbitals read from record     2100.2  Type=RHF/CANONICAL (state 1.1)

 Molecular orbital dump at record        2100.1

 ITERATION    DDIFF          GRAD             ENERGY        2-EL.EN.            DIPOLE MOMENTS         DIIS   ORB.
    1      0.000D+00      0.000D+00      -183.62026048    233.775390   -0.59197   -0.04339    0.00000    0    start
    2      0.000D+00      0.266D-03      -183.62029153    233.727924   -0.59844   -0.04372   -0.00000    1    diag
    3      0.602D-03      0.827D-04      -183.62029487    233.733621   -0.59589   -0.04380   -0.00000    2    diag
    4      0.221D-03      0.332D-04      -183.62029561    233.734661   -0.59843   -0.04360   -0.00000    3    diag
    5      0.747D-04      0.145D-04      -183.62029574    233.732582   -0.59797   -0.04378   -0.00000    4    diag
    6      0.296D-04      0.818D-05      -183.62029578    233.732582   -0.59842   -0.04368   -0.00000    5    diag
    7      0.175D-04      0.275D-05      -183.62029579    233.732662   -0.59851   -0.04369   -0.00000    6    diag
    8      0.865D-05      0.860D-06      -183.62029579    233.732620   -0.59851   -0.04368   -0.00000    7    orth
    9      0.261D-05      0.578D-06      -183.62029579    233.732629   -0.59850   -0.04368   -0.00000    8    diag
   10      0.278D-05      0.387D-06      -183.62029579    233.732625   -0.59849   -0.04367    0.00000    9    diag
   11      0.282D-05      0.233D-06      -183.62029579    233.732624   -0.59848   -0.04367    0.00000    9    diag
   12      0.254D-05      0.868D-07      -183.62029579    233.732623   -0.59848   -0.04366   -0.00000    9    diag
   13      0.875D-06      0.378D-07      -183.62029579    233.732622   -0.59848   -0.04366    0.00000    9    diag
   14      0.261D-06      0.147D-07      -183.62029579    233.732622   -0.59848   -0.04366   -0.00000    9    diag
   15      0.106D-06      0.391D-08      -183.62029579    233.732622   -0.59848   -0.04366   -0.00000    9    diag
   16      0.186D-07      0.144D-08      -183.62029579    233.732622   -0.59848   -0.04366   -0.00000    0    orth

 Final occupancy:  11

 !RHF STATE 1.1 Energy               -183.620295794115
 Nuclear energy                        50.73252427
 One-electron energy                 -351.21913119
 Two-electron energy                  116.86631113
 Virial quotient                       -1.00311397
 !RHF STATE 1.1 Dipole moment          -0.59848161    -0.04366434    -0.00000000
 Dipole moment /Debye                  -1.52108890    -0.11097640    -0.00000000

 Orbital energies:

         1.1          2.1          3.1          4.1          5.1          6.1          7.1          8.1          9.1         10.1
    -20.649576   -15.766684   -15.747901    -1.492965    -1.253397    -0.825496    -0.671912    -0.649832    -0.649502    -0.518226

        11.1         12.1         13.1
     -0.517764     0.073028     0.118091

 HOMO     11.1    -0.517764 =     -14.0891eV
 LUMO     12.1     0.073028 =       1.9872eV
 LUMO-HOMO         0.590792 =      16.0763eV


 **********************************************************************************************************************************
 DATASETS  * FILE   NREC   LENGTH (MB)   RECORD NAMES
              1      19       19.35       500      610      700      900      950      970     1000      129      960     1100   
                                          VAR    BASINP    GEOM    SYMINP    ZMAT    AOBASIS   BASIS     P2S    ABASIS      S 
                                         1400     1410     1200     1210     1080     1600     1650     1700     2100   
                                           T        V       H0       H01     AOSYM     SMH    MOLCAS    OPER      RHF  

              2       7        0.51       700     1000      520     2100     4100     4101     5500   
                                         GEOM     BASIS   MCVARS     RHF     CPHF     CPHF     HINFO   

 PROGRAMS   *        TOTAL        HF       MP2        HF       INT
 CPU TIMES  *         0.80      0.29      0.06      0.03      0.30
 REAL TIME  *         1.46 SEC
 DISK USED  *       176.62 MB      
 SF USED    *         3.00 MB      
 GA USED    *         0.00 MB       (max)       0.00 MB       (current)
 **********************************************************************************************************************************


1PROGRAM * MP2 (Closed-shell)     Authors: C. Hampel, H.-J. Werner, 1991, M. Deegan, P.J. Knowles, 1992


 Convergence thresholds:  THRVAR = 1.00D-12  THRDEN = 1.00D-08

 Number of core orbitals:           3 (   3 )
 Number of closed-shell orbitals:   8 (   8 )
 Number of external orbitals:      31 (  31 )

 Molecular orbitals read from record     2100.1  Type=RHF/CANONICAL (state 1.1)

 Number of N-1 electron functions:               8
 Number of N-2 electron functions:              36
 Number of singly external CSFs:               248
 Number of doubly external CSFs:             30876
 Total number of CSFs:                       31125

 Length of J-op  integral file:               0.00 MB
 Length of K-op  integral file:               0.12 MB

 Integral transformation finished. Total CPU:   0.00 sec, npass=  1  Memory used:   0.20 MW

 Memory needed for MP2:                      0.01 MW

 SCS-MP2 correlation energy:           -0.461314886135   (PS=  1.200000  PT=  0.333333)
 SCS-MP2 total energy:               -184.081610680250


  Reference energy                   -183.620295794115
  MP2 singlet pair energy              -0.288381853895
  MP2 triplet pair energy              -0.185233920206
  MP2 correlation energy               -0.473615774100

 !MP2 total energy                   -184.093911568215

 KEXT needed  1 integral passes. Memory used:   0.18 MW  CPU time:      0.01 sec


 CPHF trial vector read from record  4101.2

 Starting Coupled-perturbed Hartree-Fock, convergence threshold= 1.0D-06

 ITER   MIC  DIIS      VAR         VARC       CPU
   1     0     1    0.60D-02    0.58D-04     0.00
   2    10     2    0.12D-04    0.11D-04     0.00
   3     3     3    0.11D-05    0.92D-07     0.00
   4     1     4    0.63D-06    0.66D-08     0.00

 CPHF convergence reached in  4 macroiterations and   14 microiterations.   Accuracy: 6.2901D-07

 Dipole moments (unrelaxed):           -0.60386676    -0.04573982    -0.00000000
 Orbital relaxation contribution:      -0.15985671    -0.01978069    -0.00000000
 !!MP2 STATE 1.1 Dipole moment         -0.76372348    -0.06552052    -0.00000000
 Dipole moment /Debye                  -1.94106431    -0.16652564    -0.00000000
 
 CPU-time for density and lagrangian:                  0.00 sec
 CPU-time for coupled-perturbed hartree-fock:          0.00 sec

 MP2 Gradient info saved on record         5200.1


 **********************************************************************************************************************************
 DATASETS  * FILE   NREC   LENGTH (MB)   RECORD NAMES
              1      21       20.48       500      610      700      900      950      970     1000      129      960     1100   
                                          VAR    BASINP    GEOM    SYMINP    ZMAT    AOBASIS   BASIS     P2S    ABASIS      S 
                                         1400     1410     1200     1210     1080     1600     1650     1700     2100     1380   
                                           T        V       H0       H01     AOSYM     SMH    MOLCAS    OPER      RHF     JKOP   
                                         5200   
                                          MP2  

              2       7        0.51       700     1000      520     2100     4100     4101     5500   
                                         GEOM     BASIS   MCVARS     RHF     CPHF     CPHF     HINFO   

 PROGRAMS   *        TOTAL       MP2       MP2        HF       INT
 CPU TIMES  *         0.85      0.05      0.06      0.03      0.30
 REAL TIME  *         1.52 SEC
 DISK USED  *       177.95 MB      
 SF USED    *         3.00 MB      
 GA USED    *         0.00 MB       (max)       0.00 MB       (current)
 **********************************************************************************************************************************
1PROGRAM * ALASKA (Gradient of the energy)     Author: R. Lindh


 MP2      Gradient info restored from record    5200.1

 Number of core orbitals:           3 (   3 )
 Number of closed-shell orbitals:   8 (   8 )
 Number of external orbitals:      31 (  31 )

 Integral thresholds in T2TRAN:            1.0D-10 (PROD)

 Available memory for Transformation: 997885300 words
 Memory needed for incore algorithm:     126437 words
 Minimum memory needed:                   45797 words

 Memory used for transformation:           0.13 MW
 Available memory for gradients:         999.76 MW

 CPU for transformation:                   0.06 sec
 CPU for integrals and gradient:           1.16 sec
 Total CPU:                                1.32 sec

 Prescreening statistics:
 ========================

 Total number of shell quadruplets:        3.83D+02
 Number of shell quadruplets processed:    3.83D+02 (100.00%)

 MP2 GRADIENT FOR STATE 1.1

 Atom          dE/dx               dE/dy               dE/dz

   1        -0.063695463        -0.023193679        -0.000000000
   2        -0.013975339         0.009527108         0.000000000
   3         0.077670801         0.013666571        -0.000000000

 Nuclear force contribution to virial =         0.287578949
 Starting task   2.  CPU=     3.75 sec, Elapsed=     3.76 sec
 Incrementing variable GX1              by -0.005292 ANG   to   -0.270796 ANG


 Recomputing integrals since geometry changed

1PROGRAM * SEWARD (Integral evaluation for generally contracted gaussian basis sets)     Author: Roland Lindh, 1990

 Geometry written to block  1 of record 700


 Point group  C1  



 ATOMIC COORDINATES

 NR  ATOM    CHARGE       X              Y              Z

   1  N       7.00   -0.511730236   -0.289161233    0.000000000
   2  N       7.00   -2.591087609    0.175141897    0.000000000
   3  O       8.00    2.707672892    0.099820643    0.000000000

 Bond lengths in Bohr (Angstrom)

 1-2  2.130564357  1-3  3.242817201
     ( 1.127446104)     ( 1.716024962)

 Bond angles

  2-1-3  160.52349263

 NUCLEAR CHARGE:                   22
 NUMBER OF PRIMITIVE AOS:          81
 NUMBER OF SYMMETRY AOS:           78
 NUMBER OF CONTRACTIONS:           42   (  42A   )
 NUMBER OF CORE ORBITALS:           3   (   3A   )
 NUMBER OF VALENCE ORBITALS:       12   (  12A   )


 NUCLEAR REPULSION ENERGY   50.83497815

 EXTRA SYMMETRY OF AOS IN SYMMETRY 1:   1 1 1 1 1 2 1 1 2 1   1 2 1 2 1 1 1 1 1 2   1 1 2 1 1 2 1 2 1 1   1 1 1 2 1 1 2 1 1 2
                                        1 2

 Eigenvalues of metric

         1 0.359E-02 0.214E-01 0.384E-01 0.664E-01 0.886E-01 0.117E+00 0.117E+00 0.133E+00


 Contracted 2-electron integrals neglected if value below      1.0D-11
 AO integral compression algorithm  1   Integral accuracy      1.0D-11

     1.835 MB (compressed) written to integral file ( 60.4%)

     Node minimum: 0.262 MB, node maximum: 0.262 MB


 NUMBER OF SORTED TWO-ELECTRON INTEGRALS:      58695.     BUFFER LENGTH:  32768
 NUMBER OF SEGMENTS:   1  SEGMENT LENGTH:      58695      RECORD LENGTH: 524288

 Memory used in sort:       0.62 MW

 SORT1 READ      544483. AND WROTE       30568. INTEGRALS IN      1 RECORDS. CPU TIME:     0.01 SEC, REAL TIME:     0.01 SEC
 SORT2 READ      205882. AND WROTE      408156. INTEGRALS IN      7 RECORDS. CPU TIME:     0.00 SEC, REAL TIME:     0.01 SEC

 Node minimum:       57921.  Node maximum:       58695. integrals

 OPERATOR DM      FOR CENTER  0  COORDINATES:    0.000000    0.000000    0.000000
1PROGRAM * RHF-SCF (CLOSED SHELL)       Authors: W. Meyer, H.-J. Werner


 NUMBER OF ELECTRONS:      11+   11-    SPACE SYMMETRY=1    SPIN SYMMETRY: Singlet 
 CONVERGENCE THRESHOLDS:    1.00E-07 (Density)    1.00E-08 (Energy)
 MAX. NUMBER OF ITERATIONS:     1000
 INTERPOLATION TYPE:            DIIS
 INTERPOLATION STEPS:              2 (START)      1 (STEP)
 LEVEL SHIFTS:                  0.00 (CLOSED)  0.00 (OPEN) 

 Number of closed-shell orbitals:   11 (  11 )


 Molecular orbitals read from record     2100.2  Type=RHF/CANONICAL (state 1.1)

 Molecular orbital dump at record        2100.1

 ITERATION    DDIFF          GRAD             ENERGY        2-EL.EN.            DIPOLE MOMENTS         DIIS   ORB.
    1      0.000D+00      0.000D+00      -183.62343959    233.891263   -0.59580   -0.04348    0.00000    0    start
    2      0.000D+00      0.267D-03      -183.62347065    233.939559   -0.58936   -0.04315   -0.00000    1    diag
    3      0.601D-03      0.827D-04      -183.62347393    233.933505   -0.59175   -0.04309    0.00000    2    diag
    4      0.220D-03      0.322D-04      -183.62347464    233.932626   -0.58934   -0.04327   -0.00000    3    diag
    5      0.734D-04      0.137D-04      -183.62347475    233.934603   -0.58974   -0.04310   -0.00000    4    diag
    6      0.282D-04      0.770D-05      -183.62347479    233.934578   -0.58930   -0.04319   -0.00000    5    diag
    7      0.166D-04      0.267D-05      -183.62347480    233.934507   -0.58922   -0.04318    0.00000    6    diag
    8      0.808D-05      0.836D-06      -183.62347480    233.934547   -0.58922   -0.04319   -0.00000    7    orth
    9      0.253D-05      0.572D-06      -183.62347480    233.934537   -0.58923   -0.04320    0.00000    8    diag
   10      0.278D-05      0.389D-06      -183.62347480    233.934541   -0.58924   -0.04320   -0.00000    9    diag
   11      0.298D-05      0.231D-06      -183.62347480    233.934542   -0.58925   -0.04321    0.00000    9    diag
   12      0.264D-05      0.829D-07      -183.62347480    233.934544   -0.58925   -0.04321   -0.00000    9    diag
   13      0.856D-06      0.354D-07      -183.62347480    233.934545   -0.58925   -0.04321   -0.00000    9    diag
   14      0.238D-06      0.134D-07      -183.62347480    233.934544   -0.58925   -0.04321   -0.00000    9    diag
   15      0.924D-07      0.359D-08      -183.62347480    233.934544   -0.58925   -0.04321   -0.00000    0    orth

 Final occupancy:  11

 !RHF STATE 1.1 Energy               -183.623474803686
 Nuclear energy                        50.83497815
 One-electron energy                 -351.42572498
 Two-electron energy                  116.96727203
 Virial quotient                       -1.00279424
 !RHF STATE 1.1 Dipole moment          -0.58924733    -0.04320811    -0.00000000
 Dipole moment /Debye                  -1.49761923    -0.10981688    -0.00000000

 Orbital energies:

         1.1          2.1          3.1          4.1          5.1          6.1          7.1          8.1          9.1         10.1
    -20.649988   -15.762388   -15.744031    -1.499560    -1.251954    -0.822398    -0.672219    -0.652553    -0.652252    -0.519345

        11.1         12.1         13.1
     -0.518902     0.075181     0.123749

 HOMO     11.1    -0.518902 =     -14.1201eV
 LUMO     12.1     0.075181 =       2.0458eV
 LUMO-HOMO         0.594083 =      16.1658eV


 **********************************************************************************************************************************
 DATASETS  * FILE   NREC   LENGTH (MB)   RECORD NAMES
              1      19       19.35       500      610      700      900      950      970     1000      129      960     1100   
                                          VAR    BASINP    GEOM    SYMINP    ZMAT    AOBASIS   BASIS     P2S    ABASIS      S 
                                         1400     1410     1200     1210     1080     1600     1650     1700     2100   
                                           T        V       H0       H01     AOSYM     SMH    MOLCAS    OPER      RHF  

              2       8        0.52       700     1000      520     2100     4100     4101     5500     9001   
                                         GEOM     BASIS   MCVARS     RHF     CPHF     CPHF     HINFO   DEN_MP2    

 PROGRAMS   *        TOTAL        HF       MP2        HF       INT
 CPU TIMES  *         3.29      0.30      0.06      0.03      0.30
 REAL TIME  *         5.23 SEC
 DISK USED  *       177.95 MB      
 SF USED    *         3.00 MB      
 GA USED    *         0.00 MB       (max)       0.00 MB       (current)
 **********************************************************************************************************************************


1PROGRAM * MP2 (Closed-shell)     Authors: C. Hampel, H.-J. Werner, 1991, M. Deegan, P.J. Knowles, 1992


 Convergence thresholds:  THRVAR = 1.00D-12  THRDEN = 1.00D-08

 Number of core orbitals:           3 (   3 )
 Number of closed-shell orbitals:   8 (   8 )
 Number of external orbitals:      31 (  31 )

 Molecular orbitals read from record     2100.1  Type=RHF/CANONICAL (state 1.1)

 Number of N-1 electron functions:               8
 Number of N-2 electron functions:              36
 Number of singly external CSFs:               248
 Number of doubly external CSFs:             30876
 Total number of CSFs:                       31125

 Length of J-op  integral file:               0.00 MB
 Length of K-op  integral file:               0.12 MB

 Integral transformation finished. Total CPU:   0.01 sec, npass=  1  Memory used:   0.20 MW

 Memory needed for MP2:                      0.01 MW

 SCS-MP2 correlation energy:           -0.457128769030   (PS=  1.200000  PT=  0.333333)
 SCS-MP2 total energy:               -184.080603572715


  Reference energy                   -183.623474803686
  MP2 singlet pair energy              -0.286128867032
  MP2 triplet pair energy              -0.182851278092
  MP2 correlation energy               -0.468980145125

 !MP2 total energy                   -184.092454948810

 KEXT needed  1 integral passes. Memory used:   0.18 MW  CPU time:      0.01 sec


 CPHF trial vector read from record  4101.2

 Starting Coupled-perturbed Hartree-Fock, convergence threshold= 1.0D-06

 ITER   MIC  DIIS      VAR         VARC       CPU
   1     0     1    0.60D-02    0.59D-04     0.00
   2    10     2    0.12D-04    0.11D-04     0.00
   3     3     3    0.11D-05    0.90D-07     0.00
   4     1     4    0.61D-06    0.65D-08     0.00

 CPHF convergence reached in  4 macroiterations and   14 microiterations.   Accuracy: 6.0937D-07

 Dipole moments (unrelaxed):           -0.59539263    -0.04531559    -0.00000000
 Orbital relaxation contribution:      -0.16225237    -0.01991693    -0.00000000
 !!MP2 STATE 1.1 Dipole moment         -0.75764500    -0.06523252    -0.00000000
 Dipole moment /Debye                  -1.92561539    -0.16579366    -0.00000000
 
 CPU-time for density and lagrangian:                  0.00 sec
 CPU-time for coupled-perturbed hartree-fock:          0.00 sec

 MP2 Gradient info saved on record         5200.1


 **********************************************************************************************************************************
 DATASETS  * FILE   NREC   LENGTH (MB)   RECORD NAMES
              1      21       20.48       500      610      700      900      950      970     1000      129      960     1100   
                                          VAR    BASINP    GEOM    SYMINP    ZMAT    AOBASIS   BASIS     P2S    ABASIS      S 
                                         1400     1410     1200     1210     1080     1600     1650     1700     2100     1380   
                                           T        V       H0       H01     AOSYM     SMH    MOLCAS    OPER      RHF     JKOP   
                                         5200   
                                          MP2  

              2       8        0.52       700     1000      520     2100     4100     4101     5500     9001   
                                         GEOM     BASIS   MCVARS     RHF     CPHF     CPHF     HINFO   DEN_MP2    

 PROGRAMS   *        TOTAL       MP2       MP2        HF       INT
 CPU TIMES  *         3.33      0.04      0.06      0.03      0.30
 REAL TIME  *         5.29 SEC
 DISK USED  *       178.00 MB      
 SF USED    *         3.00 MB      
 GA USED    *         0.00 MB       (max)       0.00 MB       (current)
 **********************************************************************************************************************************
1PROGRAM * ALASKA (Gradient of the energy)     Author: R. Lindh


 MP2      Gradient info restored from record    5200.1

 Number of core orbitals:           3 (   3 )
 Number of closed-shell orbitals:   8 (   8 )
 Number of external orbitals:      31 (  31 )

 Integral thresholds in T2TRAN:            1.0D-10 (PROD)

 Available memory for Transformation: 997885300 words
 Memory needed for incore algorithm:     126437 words
 Minimum memory needed:                   45797 words

 Memory used for transformation:           0.13 MW
 Available memory for gradients:         999.76 MW

 CPU for transformation:                   0.18 sec
 CPU for integrals and gradient:           1.15 sec
 Total CPU:                                1.43 sec

 Prescreening statistics:
 ========================

 Total number of shell quadruplets:        3.14D+02
 Number of shell quadruplets processed:    3.14D+02 (100.00%)

 MP2 GRADIENT FOR STATE 1.1

 Atom          dE/dx               dE/dy               dE/dz

   1        -0.082349020        -0.017691437         0.000000000
   2         0.008223379         0.004586837        -0.000000000
   3         0.074125641         0.013104600         0.000000000

 Nuclear force contribution to virial =         0.228768111
 Starting task   3.  CPU=     6.68 sec, Elapsed=     6.69 sec
 Incrementing variable GY1              by  0.005292 ANG   to   -0.147726 ANG


 Recomputing integrals since geometry changed

1PROGRAM * SEWARD (Integral evaluation for generally contracted gaussian basis sets)     Author: Roland Lindh, 1990

 Geometry written to block  1 of record 700


 Point group  C1  



 ATOMIC COORDINATES

 NR  ATOM    CHARGE       X              Y              Z

   1  N       7.00   -0.501730236   -0.279161233    0.000000000
   2  N       7.00   -2.591087609    0.175141897    0.000000000
   3  O       8.00    2.707672892    0.099820643    0.000000000

 Bond lengths in Bohr (Angstrom)

 1-2  2.138178095  1-3  3.231701673
     ( 1.131475121)     ( 1.710142878)

 Bond angles

  2-1-3  160.99816204

 NUCLEAR CHARGE:                   22
 NUMBER OF PRIMITIVE AOS:          81
 NUMBER OF SYMMETRY AOS:           78
 NUMBER OF CONTRACTIONS:           42   (  42A   )
 NUMBER OF CORE ORBITALS:           3   (   3A   )
 NUMBER OF VALENCE ORBITALS:       12   (  12A   )


 NUCLEAR REPULSION ENERGY   50.81248050

 EXTRA SYMMETRY OF AOS IN SYMMETRY 1:   1 1 1 1 1 2 1 1 2 1   1 2 1 2 1 1 1 1 1 2   1 1 2 1 1 2 1 2 1 1   1 1 1 2 1 1 2 1 1 2
                                        1 2

 Eigenvalues of metric

         1 0.361E-02 0.212E-01 0.385E-01 0.672E-01 0.890E-01 0.117E+00 0.118E+00 0.133E+00


 Contracted 2-electron integrals neglected if value below      1.0D-11
 AO integral compression algorithm  1   Integral accuracy      1.0D-11

     1.835 MB (compressed) written to integral file ( 60.4%)

     Node minimum: 0.262 MB, node maximum: 0.262 MB


 NUMBER OF SORTED TWO-ELECTRON INTEGRALS:      58695.     BUFFER LENGTH:  32768
 NUMBER OF SEGMENTS:   1  SEGMENT LENGTH:      58695      RECORD LENGTH: 524288

 Memory used in sort:       0.62 MW

 SORT1 READ      544483. AND WROTE       30568. INTEGRALS IN      1 RECORDS. CPU TIME:     0.02 SEC, REAL TIME:     0.01 SEC
 SORT2 READ      205882. AND WROTE      408156. INTEGRALS IN      7 RECORDS. CPU TIME:     0.00 SEC, REAL TIME:     0.01 SEC

 Node minimum:       57921.  Node maximum:       58695. integrals

 OPERATOR DM      FOR CENTER  0  COORDINATES:    0.000000    0.000000    0.000000
1PROGRAM * RHF-SCF (CLOSED SHELL)       Authors: W. Meyer, H.-J. Werner


 NUMBER OF ELECTRONS:      11+   11-    SPACE SYMMETRY=1    SPIN SYMMETRY: Singlet 
 CONVERGENCE THRESHOLDS:    1.00E-07 (Density)    1.00E-08 (Energy)
 MAX. NUMBER OF ITERATIONS:     1000
 INTERPOLATION TYPE:            DIIS
 INTERPOLATION STEPS:              2 (START)      1 (STEP)
 LEVEL SHIFTS:                  0.00 (CLOSED)  0.00 (OPEN) 

 Number of closed-shell orbitals:   11 (  11 )


 Molecular orbitals read from record     2100.2  Type=RHF/CANONICAL (state 1.1)

 Molecular orbital dump at record        2100.1

 ITERATION    DDIFF          GRAD             ENERGY        2-EL.EN.            DIPOLE MOMENTS         DIIS   ORB.
    1      0.000D+00      0.000D+00      -183.62242457    233.879849   -0.59397   -0.04241    0.00000    0    start
    2      0.000D+00      0.200D-03      -183.62244248    233.889007   -0.59328   -0.04219    0.00000    1    diag
    3      0.318D-03      0.566D-04      -183.62244521    233.886388   -0.59451   -0.04225    0.00000    2    diag
    4      0.132D-03      0.205D-04      -183.62244571    233.886643   -0.59398   -0.04234    0.00000    3    diag
    5      0.428D-04      0.141D-04      -183.62244607    233.887309   -0.59464   -0.04228   -0.00000    4    diag
    6      0.389D-04      0.107D-04      -183.62244633    233.886769   -0.59454   -0.04240    0.00000    5    diag
    7      0.356D-04      0.758D-05      -183.62244653    233.886795   -0.59470   -0.04243    0.00000    6    diag
    8      0.383D-04      0.535D-05      -183.62244669    233.887047   -0.59480   -0.04254    0.00000    7    orth
    9      0.480D-04      0.257D-05      -183.62244673    233.886932   -0.59485   -0.04261    0.00000    8    diag
   10      0.336D-04      0.613D-06      -183.62244673    233.886963   -0.59485   -0.04262   -0.00000    9    diag
   11      0.406D-05      0.308D-06      -183.62244673    233.886959   -0.59486   -0.04262   -0.00000    9    diag
   12      0.178D-05      0.108D-06      -183.62244673    233.886960   -0.59486   -0.04262   -0.00000    9    diag
   13      0.725D-06      0.239D-07      -183.62244673    233.886959   -0.59486   -0.04262   -0.00000    9    diag
   14      0.131D-06      0.447D-08      -183.62244673    233.886959   -0.59486   -0.04262   -0.00000    9    diag
   15      0.148D-07      0.145D-08      -183.62244673    233.886959   -0.59486   -0.04262    0.00000    0    orth

 Final occupancy:  11

 !RHF STATE 1.1 Energy               -183.622446731576
 Nuclear energy                        50.81248050
 One-electron energy                 -351.37840682
 Two-electron energy                  116.94347959
 Virial quotient                       -1.00292547
 !RHF STATE 1.1 Dipole moment          -0.59485925    -0.04261604     0.00000000
 Dipole moment /Debye                  -1.51188238    -0.10831208     0.00000000

 Orbital energies:

         1.1          2.1          3.1          4.1          5.1          6.1          7.1          8.1          9.1         10.1
    -20.649657   -15.764424   -15.745685    -1.497169    -1.252737    -0.823676    -0.672263    -0.651706    -0.651408    -0.518716

        11.1         12.1         13.1
     -0.518283     0.075407     0.121433

 HOMO     11.1    -0.518283 =     -14.1032eV
 LUMO     12.1     0.075407 =       2.0519eV
 LUMO-HOMO         0.593690 =      16.1551eV


 **********************************************************************************************************************************
 DATASETS  * FILE   NREC   LENGTH (MB)   RECORD NAMES
              1      19       19.35       500      610      700      900      950      970     1000      129      960     1100   
                                          VAR    BASINP    GEOM    SYMINP    ZMAT    AOBASIS   BASIS     P2S    ABASIS      S 
                                         1400     1410     1200     1210     1080     1600     1650     1700     2100   
                                           T        V       H0       H01     AOSYM     SMH    MOLCAS    OPER      RHF  

              2       8        0.52       700     1000      520     2100     4100     4101     5500     9001   
                                         GEOM     BASIS   MCVARS     RHF     CPHF     CPHF     HINFO   DEN_MP2    

 PROGRAMS   *        TOTAL        HF       MP2        HF       INT
 CPU TIMES  *         6.16      0.30      0.06      0.03      0.30
 REAL TIME  *         8.15 SEC
 DISK USED  *       178.00 MB      
 SF USED    *         3.00 MB      
 GA USED    *         0.00 MB       (max)       0.00 MB       (current)
 **********************************************************************************************************************************


1PROGRAM * MP2 (Closed-shell)     Authors: C. Hampel, H.-J. Werner, 1991, M. Deegan, P.J. Knowles, 1992


 Convergence thresholds:  THRVAR = 1.00D-12  THRDEN = 1.00D-08

 Number of core orbitals:           3 (   3 )
 Number of closed-shell orbitals:   8 (   8 )
 Number of external orbitals:      31 (  31 )

 Molecular orbitals read from record     2100.1  Type=RHF/CANONICAL (state 1.1)

 Number of N-1 electron functions:               8
 Number of N-2 electron functions:              36
 Number of singly external CSFs:               248
 Number of doubly external CSFs:             30876
 Total number of CSFs:                       31125

 Length of J-op  integral file:               0.00 MB
 Length of K-op  integral file:               0.12 MB

 Integral transformation finished. Total CPU:   0.01 sec, npass=  1  Memory used:   0.20 MW

 Memory needed for MP2:                      0.01 MW

 SCS-MP2 correlation energy:           -0.458922601085   (PS=  1.200000  PT=  0.333333)
 SCS-MP2 total energy:               -184.081369332661


  Reference energy                   -183.622446731576
  MP2 singlet pair energy              -0.287076189488
  MP2 triplet pair energy              -0.183907243446
  MP2 correlation energy               -0.470983432934

 !MP2 total energy                   -184.093430164510

 KEXT needed  1 integral passes. Memory used:   0.18 MW  CPU time:      0.00 sec


 CPHF trial vector read from record  4101.2

 Starting Coupled-perturbed Hartree-Fock, convergence threshold= 1.0D-06

 ITER   MIC  DIIS      VAR         VARC       CPU
   1     0     1    0.29D-02    0.14D-04     0.00
   2    10     2    0.45D-05    0.41D-05     0.01
   3     3     3    0.71D-06    0.41D-07     0.01

 CPHF convergence reached in  3 macroiterations and   13 microiterations.   Accuracy: 7.1469D-07

 Dipole moments (unrelaxed):           -0.60061147    -0.04463791     0.00000000
 Orbital relaxation contribution:      -0.16074306    -0.01933080    -0.00000000
 !!MP2 STATE 1.1 Dipole moment         -0.76135452    -0.06396871     0.00000000
 Dipole moment /Debye                  -1.93504343    -0.16258160     0.00000000
 
 CPU-time for density and lagrangian:                  0.00 sec
 CPU-time for coupled-perturbed hartree-fock:          0.01 sec

 MP2 Gradient info saved on record         5200.1


 **********************************************************************************************************************************
 DATASETS  * FILE   NREC   LENGTH (MB)   RECORD NAMES
              1      21       20.48       500      610      700      900      950      970     1000      129      960     1100   
                                          VAR    BASINP    GEOM    SYMINP    ZMAT    AOBASIS   BASIS     P2S    ABASIS      S 
                                         1400     1410     1200     1210     1080     1600     1650     1700     2100     1380   
                                           T        V       H0       H01     AOSYM     SMH    MOLCAS    OPER      RHF     JKOP   
                                         5200   
                                          MP2  

              2       8        0.52       700     1000      520     2100     4100     4101     5500     9001   
                                         GEOM     BASIS   MCVARS     RHF     CPHF     CPHF     HINFO   DEN_MP2    

 PROGRAMS   *        TOTAL       MP2       MP2        HF       INT
 CPU TIMES  *         6.21      0.05      0.06      0.03      0.30
 REAL TIME  *         8.20 SEC
 DISK USED  *       178.00 MB      
 SF USED    *         3.00 MB      
 GA USED    *         0.00 MB       (max)       0.00 MB       (current)
 **********************************************************************************************************************************
1PROGRAM * ALASKA (Gradient of the energy)     Author: R. Lindh


 MP2      Gradient info restored from record    5200.1

 Number of core orbitals:           3 (   3 )
 Number of closed-shell orbitals:   8 (   8 )
 Number of external orbitals:      31 (  31 )

 Integral thresholds in T2TRAN:            1.0D-10 (PROD)

 Available memory for Transformation: 997885300 words
 Memory needed for incore algorithm:     126437 words
 Minimum memory needed:                   45797 words

 Memory used for transformation:           0.13 MW
 Available memory for gradients:         999.76 MW

 CPU for transformation:                   0.18 sec
 CPU for integrals and gradient:           1.16 sec
 Total CPU:                                1.44 sec

 Prescreening statistics:
 ========================

 Total number of shell quadruplets:        2.82D+02
 Number of shell quadruplets processed:    2.79D+02 ( 98.94%)

 MP2 GRADIENT FOR STATE 1.1

 Atom          dE/dx               dE/dy               dE/dz

   1        -0.075470657        -0.019552234        -0.000000000
   2        -0.000743772         0.006455209         0.000000000
   3         0.076214429         0.013097025         0.000000000

 Nuclear force contribution to virial =         0.254052989
 Starting task   4.  CPU=     9.60 sec, Elapsed=     9.62 sec
 Incrementing variable GY1              by -0.005292 ANG   to   -0.158309 ANG


 Recomputing integrals since geometry changed

1PROGRAM * SEWARD (Integral evaluation for generally contracted gaussian basis sets)     Author: Roland Lindh, 1990

 Geometry written to block  1 of record 700


 Point group  C1  



 ATOMIC COORDINATES

 NR  ATOM    CHARGE       X              Y              Z

   1  N       7.00   -0.501730236   -0.299161233    0.000000000
   2  N       7.00   -2.591087609    0.175141897    0.000000000
   3  O       8.00    2.707672892    0.099820643    0.000000000

 Bond lengths in Bohr (Angstrom)

 1-2  2.142516672  1-3  3.234108065
     ( 1.133770997)     ( 1.711416286)

 Bond angles

  2-1-3  160.12364186

 NUCLEAR CHARGE:                   22
 NUMBER OF PRIMITIVE AOS:          81
 NUMBER OF SYMMETRY AOS:           78
 NUMBER OF CONTRACTIONS:           42   (  42A   )
 NUMBER OF CORE ORBITALS:           3   (   3A   )
 NUMBER OF VALENCE ORBITALS:       12   (  12A   )


 NUCLEAR REPULSION ENERGY   50.75318094

 EXTRA SYMMETRY OF AOS IN SYMMETRY 1:   1 1 1 1 1 2 1 1 2 1   1 2 1 2 1 1 1 1 1 2   1 1 2 1 1 2 1 2 1 1   1 1 1 2 1 1 2 1 1 2
                                        1 2

 Eigenvalues of metric

         1 0.368E-02 0.213E-01 0.385E-01 0.677E-01 0.894E-01 0.118E+00 0.118E+00 0.133E+00


 Contracted 2-electron integrals neglected if value below      1.0D-11
 AO integral compression algorithm  1   Integral accuracy      1.0D-11

     1.835 MB (compressed) written to integral file ( 60.4%)

     Node minimum: 0.262 MB, node maximum: 0.262 MB


 NUMBER OF SORTED TWO-ELECTRON INTEGRALS:      58695.     BUFFER LENGTH:  32768
 NUMBER OF SEGMENTS:   1  SEGMENT LENGTH:      58695      RECORD LENGTH: 524288

 Memory used in sort:       0.62 MW

 SORT1 READ      544483. AND WROTE       30568. INTEGRALS IN      1 RECORDS. CPU TIME:     0.01 SEC, REAL TIME:     0.01 SEC
 SORT2 READ      205882. AND WROTE      408156. INTEGRALS IN      7 RECORDS. CPU TIME:     0.01 SEC, REAL TIME:     0.01 SEC

 Node minimum:       57921.  Node maximum:       58695. integrals

 OPERATOR DM      FOR CENTER  0  COORDINATES:    0.000000    0.000000    0.000000
1PROGRAM * RHF-SCF (CLOSED SHELL)       Authors: W. Meyer, H.-J. Werner


 NUMBER OF ELECTRONS:      11+   11-    SPACE SYMMETRY=1    SPIN SYMMETRY: Singlet 
 CONVERGENCE THRESHOLDS:    1.00E-07 (Density)    1.00E-08 (Energy)
 MAX. NUMBER OF ITERATIONS:     1000
 INTERPOLATION TYPE:            DIIS
 INTERPOLATION STEPS:              2 (START)      1 (STEP)
 LEVEL SHIFTS:                  0.00 (CLOSED)  0.00 (OPEN) 

 Number of closed-shell orbitals:   11 (  11 )


 Molecular orbitals read from record     2100.2  Type=RHF/CANONICAL (state 1.1)

 Molecular orbital dump at record        2100.1

 ITERATION    DDIFF          GRAD             ENERGY        2-EL.EN.            DIPOLE MOMENTS         DIIS   ORB.
    1      0.000D+00      0.000D+00      -183.62140792    233.784414   -0.59382   -0.04445    0.00000    0    start
    2      0.000D+00      0.199D-03      -183.62142581    233.775019   -0.59451   -0.04466   -0.00000    1    diag
    3      0.318D-03      0.565D-04      -183.62142854    233.777715   -0.59328   -0.04460    0.00000    2    diag
    4      0.132D-03      0.205D-04      -183.62142903    233.777426   -0.59381   -0.04450    0.00000    3    diag
    5      0.427D-04      0.140D-04      -183.62142939    233.776759   -0.59314   -0.04457    0.00000    4    diag
    6      0.389D-04      0.107D-04      -183.62142964    233.777299   -0.59324   -0.04444    0.00000    5    diag
    7      0.351D-04      0.755D-05      -183.62142984    233.777273   -0.59308   -0.04442    0.00000    6    diag
    8      0.378D-04      0.536D-05      -183.62143000    233.777020   -0.59298   -0.04431    0.00000    7    orth
    9      0.476D-04      0.265D-05      -183.62143004    233.777131   -0.59293   -0.04424   -0.00000    8    diag
   10      0.352D-04      0.643D-06      -183.62143004    233.777098   -0.59292   -0.04423    0.00000    9    diag
   11      0.437D-05      0.325D-06      -183.62143004    233.777103   -0.59292   -0.04423    0.00000    9    diag
   12      0.192D-05      0.113D-06      -183.62143004    233.777102   -0.59291   -0.04423    0.00000    9    diag
   13      0.770D-06      0.250D-07      -183.62143004    233.777102   -0.59291   -0.04423    0.00000    9    diag
   14      0.137D-06      0.480D-08      -183.62143004    233.777102   -0.59291   -0.04423    0.00000    9    diag
   15      0.155D-07      0.154D-08      -183.62143004    233.777102   -0.59291   -0.04423    0.00000    0    orth

 Final occupancy:  11

 !RHF STATE 1.1 Energy               -183.621430044859
 Nuclear energy                        50.75318094
 One-electron energy                 -351.26316213
 Two-electron energy                  116.88855114
 Virial quotient                       -1.00298693
 !RHF STATE 1.1 Dipole moment          -0.59291386    -0.04423071     0.00000000
 Dipole moment /Debye                  -1.50693800    -0.11241588     0.00000000

 Orbital energies:

         1.1          2.1          3.1          4.1          5.1          6.1          7.1          8.1          9.1         10.1
    -20.649899   -15.764653   -15.746267    -1.495316    -1.252594    -0.824239    -0.671868    -0.650635    -0.650303    -0.518864

        11.1         12.1         13.1
     -0.518393     0.072872     0.120377

 HOMO     11.1    -0.518393 =     -14.1062eV
 LUMO     12.1     0.072872 =       1.9829eV
 LUMO-HOMO         0.591264 =      16.0891eV


 **********************************************************************************************************************************
 DATASETS  * FILE   NREC   LENGTH (MB)   RECORD NAMES
              1      19       19.35       500      610      700      900      950      970     1000      129      960     1100   
                                          VAR    BASINP    GEOM    SYMINP    ZMAT    AOBASIS   BASIS     P2S    ABASIS      S 
                                         1400     1410     1200     1210     1080     1600     1650     1700     2100   
                                           T        V       H0       H01     AOSYM     SMH    MOLCAS    OPER      RHF  

              2       8        0.52       700     1000      520     2100     4100     4101     5500     9001   
                                         GEOM     BASIS   MCVARS     RHF     CPHF     CPHF     HINFO   DEN_MP2    

 PROGRAMS   *        TOTAL        HF       MP2        HF       INT
 CPU TIMES  *         9.04      0.29      0.06      0.03      0.30
 REAL TIME  *        11.08 SEC
 DISK USED  *       178.00 MB      
 SF USED    *         3.00 MB      
 GA USED    *         0.00 MB       (max)       0.00 MB       (current)
 **********************************************************************************************************************************


1PROGRAM * MP2 (Closed-shell)     Authors: C. Hampel, H.-J. Werner, 1991, M. Deegan, P.J. Knowles, 1992


 Convergence thresholds:  THRVAR = 1.00D-12  THRDEN = 1.00D-08

 Number of core orbitals:           3 (   3 )
 Number of closed-shell orbitals:   8 (   8 )
 Number of external orbitals:      31 (  31 )

 Molecular orbitals read from record     2100.1  Type=RHF/CANONICAL (state 1.1)

 Number of N-1 electron functions:               8
 Number of N-2 electron functions:              36
 Number of singly external CSFs:               248
 Number of doubly external CSFs:             30876
 Total number of CSFs:                       31125

 Length of J-op  integral file:               0.00 MB
 Length of K-op  integral file:               0.12 MB

 Integral transformation finished. Total CPU:   0.01 sec, npass=  1  Memory used:   0.20 MW

 Memory needed for MP2:                      0.01 MW

 SCS-MP2 correlation energy:           -0.459502055080   (PS=  1.200000  PT=  0.333333)
 SCS-MP2 total energy:               -184.080932099939


  Reference energy                   -183.621430044859
  MP2 singlet pair energy              -0.287425966325
  MP2 triplet pair energy              -0.184163939180
  MP2 correlation energy               -0.471589905505

 !MP2 total energy                   -184.093019950364

 KEXT needed  1 integral passes. Memory used:   0.18 MW  CPU time:      0.01 sec


 CPHF trial vector read from record  4101.2

 Starting Coupled-perturbed Hartree-Fock, convergence threshold= 1.0D-06

 ITER   MIC  DIIS      VAR         VARC       CPU
   1     0     1    0.29D-02    0.14D-04     0.00
   2    10     2    0.46D-05    0.42D-05     0.00
   3     3     3    0.72D-06    0.42D-07     0.00

 CPHF convergence reached in  3 macroiterations and   13 microiterations.   Accuracy: 7.1879D-07

 Dipole moments (unrelaxed):           -0.59871645    -0.04639639     0.00000000
 Orbital relaxation contribution:      -0.16151426    -0.02037948     0.00000000
 !!MP2 STATE 1.1 Dipole moment         -0.76023071    -0.06677587     0.00000000
 Dipole moment /Debye                  -1.93218717    -0.16971621     0.00000000
 
 CPU-time for density and lagrangian:                  0.00 sec
 CPU-time for coupled-perturbed hartree-fock:          0.00 sec

 MP2 Gradient info saved on record         5200.1


 **********************************************************************************************************************************
 DATASETS  * FILE   NREC   LENGTH (MB)   RECORD NAMES
              1      21       20.48       500      610      700      900      950      970     1000      129      960     1100   
                                          VAR    BASINP    GEOM    SYMINP    ZMAT    AOBASIS   BASIS     P2S    ABASIS      S 
                                         1400     1410     1200     1210     1080     1600     1650     1700     2100     1380   
                                           T        V       H0       H01     AOSYM     SMH    MOLCAS    OPER      RHF     JKOP   
                                         5200   
                                          MP2  

              2       8        0.52       700     1000      520     2100     4100     4101     5500     9001   
                                         GEOM     BASIS   MCVARS     RHF     CPHF     CPHF     HINFO   DEN_MP2    

 PROGRAMS   *        TOTAL       MP2       MP2        HF       INT
 CPU TIMES  *         9.09      0.05      0.06      0.03      0.30
 REAL TIME  *        11.14 SEC
 DISK USED  *       178.00 MB      
 SF USED    *         3.00 MB      
 GA USED    *         0.00 MB       (max)       0.00 MB       (current)
 **********************************************************************************************************************************
1PROGRAM * ALASKA (Gradient of the energy)     Author: R. Lindh


 MP2      Gradient info restored from record    5200.1

 Number of core orbitals:           3 (   3 )
 Number of closed-shell orbitals:   8 (   8 )
 Number of external orbitals:      31 (  31 )

 Integral thresholds in T2TRAN:            1.0D-10 (PROD)

 Available memory for Transformation: 997885300 words
 Memory needed for incore algorithm:     126437 words
 Minimum memory needed:                   45797 words

 Memory used for transformation:           0.13 MW
 Available memory for gradients:         999.76 MW

 CPU for transformation:                   0.18 sec
 CPU for integrals and gradient:           1.14 sec
 Total CPU:                                1.43 sec

 Prescreening statistics:
 ========================

 Total number of shell quadruplets:        2.88D+02
 Number of shell quadruplets processed:    2.85D+02 ( 98.96%)

 MP2 GRADIENT FOR STATE 1.1

 Atom          dE/dx               dE/dy               dE/dz

   1        -0.069971162        -0.021484064        -0.000000000
   2        -0.005545353         0.007822941         0.000000000
   3         0.075516515         0.013661123        -0.000000000

 Nuclear force contribution to virial =         0.263110149
 Starting task   5.  CPU=    12.52 sec, Elapsed=    12.54 sec
 Incrementing variable GZ1              by  0.005292 ANG   to    0.005292 ANG


 Recomputing integrals since geometry changed

1PROGRAM * SEWARD (Integral evaluation for generally contracted gaussian basis sets)     Author: Roland Lindh, 1990

 Geometry written to block  1 of record 700


 Point group  C1  



 ATOMIC COORDINATES

 NR  ATOM    CHARGE       X              Y              Z

   1  N       7.00   -0.501730236   -0.289161233    0.010000000
   2  N       7.00   -2.591087609    0.175141897    0.000000000
   3  O       8.00    2.707672892    0.099820643    0.000000000

 Bond lengths in Bohr (Angstrom)

 1-2  2.140348483  1-3  3.232905093
     ( 1.132623641)     ( 1.710779700)

 Bond angles

  2-1-3  160.55553572

 NUCLEAR CHARGE:                   22
 NUMBER OF PRIMITIVE AOS:          81
 NUMBER OF SYMMETRY AOS:           78
 NUMBER OF CONTRACTIONS:           42   (  42A   )
 NUMBER OF CORE ORBITALS:           3   (   3A   )
 NUMBER OF VALENCE ORBITALS:       12   (  12A   )


 NUCLEAR REPULSION ENERGY   50.78279185

 Eigenvalues of metric

         1 0.365E-02 0.213E-01 0.385E-01 0.675E-01 0.892E-01 0.118E+00 0.118E+00 0.133E+00


 Contracted 2-electron integrals neglected if value below      1.0D-11
 AO integral compression algorithm  1   Integral accuracy      1.0D-11

     3.146 MB (compressed) written to integral file ( 62.9%)

     Node minimum: 0.262 MB, node maximum: 0.524 MB


 NUMBER OF SORTED TWO-ELECTRON INTEGRALS:      58695.     BUFFER LENGTH:  32768
 NUMBER OF SEGMENTS:   1  SEGMENT LENGTH:      58695      RECORD LENGTH: 524288

 Memory used in sort:       0.62 MW

 SORT1 READ      544483. AND WROTE       51735. INTEGRALS IN      1 RECORDS. CPU TIME:     0.01 SEC, REAL TIME:     0.01 SEC
 SORT2 READ      358750. AND WROTE      408156. INTEGRALS IN     14 RECORDS. CPU TIME:     0.00 SEC, REAL TIME:     0.01 SEC

 Node minimum:       57921.  Node maximum:       58695. integrals

 OPERATOR DM      FOR CENTER  0  COORDINATES:    0.000000    0.000000    0.000000
1PROGRAM * RHF-SCF (CLOSED SHELL)       Authors: W. Meyer, H.-J. Werner


 NUMBER OF ELECTRONS:      11+   11-    SPACE SYMMETRY=1    SPIN SYMMETRY: Singlet 
 CONVERGENCE THRESHOLDS:    1.00E-07 (Density)    1.00E-08 (Energy)
 MAX. NUMBER OF ITERATIONS:     1000
 INTERPOLATION TYPE:            DIIS
 INTERPOLATION STEPS:              2 (START)      1 (STEP)
 LEVEL SHIFTS:                  0.00 (CLOSED)  0.00 (OPEN) 

 Number of closed-shell orbitals:   11 (  11 )


 Molecular orbitals read from record     2100.2  Type=RHF/CANONICAL (state 1.1)

 Molecular orbital dump at record        2100.1

 ITERATION    DDIFF          GRAD             ENERGY        2-EL.EN.            DIPOLE MOMENTS         DIIS   ORB.
    1      0.000D+00      0.000D+00      -183.62191889    233.832081   -0.59389   -0.04343    0.00111    0    start
    2      0.000D+00      0.197D-03      -183.62193654    233.831945   -0.59390   -0.04343    0.00159    1    diag
    3      0.314D-03      0.560D-04      -183.62193931    233.831993   -0.59389   -0.04343    0.00152    2    diag
    4      0.127D-03      0.183D-04      -183.62193995    233.831960   -0.59389   -0.04343    0.00154    3    diag
    5      0.502D-04      0.119D-04      -183.62194043    233.831995   -0.59390   -0.04343    0.00145    4    diag
    6      0.533D-04      0.787D-05      -183.62194073    233.831917   -0.59385   -0.04344    0.00138    5    diag
    7      0.503D-04      0.507D-05      -183.62194087    233.832085   -0.59397   -0.04340    0.00126    6    diag
    8      0.480D-04      0.306D-05      -183.62194090    233.831948   -0.59386   -0.04344    0.00120    7    orth
    9      0.218D-04      0.904D-06      -183.62194090    233.831972   -0.59389   -0.04343    0.00119    8    diag
   10      0.516D-05      0.424D-06      -183.62194090    233.831962   -0.59388   -0.04343    0.00119    9    diag
   11      0.155D-05      0.215D-06      -183.62194090    233.831969   -0.59388   -0.04343    0.00119    9    diag
   12      0.869D-06      0.785D-07      -183.62194090    233.831967   -0.59388   -0.04343    0.00119    9    diag
   13      0.378D-06      0.135D-07      -183.62194090    233.831968   -0.59388   -0.04343    0.00119    9    diag
   14      0.553D-07      0.197D-08      -183.62194090    233.831967   -0.59388   -0.04343    0.00119    0    orth

 Final occupancy:  11

 !RHF STATE 1.1 Energy               -183.621940901072
 Nuclear energy                        50.78279185
 One-electron energy                 -351.32071641
 Two-electron energy                  116.91598366
 Virial quotient                       -1.00295631
 !RHF STATE 1.1 Dipole moment          -0.59388094    -0.04343088     0.00119357
 Dipole moment /Debye                  -1.50939593    -0.11038305     0.00303355

 Orbital energies:

         1.1          2.1          3.1          4.1          5.1          6.1          7.1          8.1          9.1         10.1
    -20.649778   -15.764538   -15.745976    -1.496241    -1.252666    -0.823957    -0.672066    -0.651169    -0.650854    -0.518791

        11.1         12.1         13.1
     -0.518338     0.074124     0.120904

 HOMO     11.1    -0.518338 =     -14.1047eV
 LUMO     12.1     0.074124 =       2.0170eV
 LUMO-HOMO         0.592462 =      16.1217eV


 **********************************************************************************************************************************
 DATASETS  * FILE   NREC   LENGTH (MB)   RECORD NAMES
              1      19       19.35       500      610      700      900      950      970     1000      129      960     1100   
                                          VAR    BASINP    GEOM    SYMINP    ZMAT    AOBASIS   BASIS     P2S    ABASIS      S 
                                         1400     1410     1200     1210     1080     1600     1650     1700     2100   
                                           T        V       H0       H01     AOSYM     SMH    MOLCAS    OPER      RHF  

              2       8        0.52       700     1000      520     2100     4100     4101     5500     9001   
                                         GEOM     BASIS   MCVARS     RHF     CPHF     CPHF     HINFO   DEN_MP2    

 PROGRAMS   *        TOTAL        HF       MP2        HF       INT
 CPU TIMES  *        11.92      0.30      0.06      0.03      0.30
 REAL TIME  *        14.00 SEC
 DISK USED  *       178.57 MB      
 SF USED    *         3.00 MB      
 GA USED    *         0.00 MB       (max)       0.00 MB       (current)
 **********************************************************************************************************************************


1PROGRAM * MP2 (Closed-shell)     Authors: C. Hampel, H.-J. Werner, 1991, M. Deegan, P.J. Knowles, 1992


 Convergence thresholds:  THRVAR = 1.00D-12  THRDEN = 1.00D-08

 Number of core orbitals:           3 (   3 )
 Number of closed-shell orbitals:   8 (   8 )
 Number of external orbitals:      31 (  31 )

 Molecular orbitals read from record     2100.1  Type=RHF/CANONICAL (state 1.1)

 Number of N-1 electron functions:               8
 Number of N-2 electron functions:              36
 Number of singly external CSFs:               248
 Number of doubly external CSFs:             30876
 Total number of CSFs:                       31125

 Length of J-op  integral file:               0.00 MB
 Length of K-op  integral file:               0.12 MB

 Integral transformation finished. Total CPU:   0.01 sec, npass=  1  Memory used:   0.20 MW

 Memory needed for MP2:                      0.01 MW

 SCS-MP2 correlation energy:           -0.459212208550   (PS=  1.200000  PT=  0.333333)
 SCS-MP2 total energy:               -184.081153109621


  Reference energy                   -183.621940901072
  MP2 singlet pair energy              -0.287251044115
  MP2 triplet pair energy              -0.184035464376
  MP2 correlation energy               -0.471286508491

 !MP2 total energy                   -184.093227409563

 KEXT needed  1 integral passes. Memory used:   0.18 MW  CPU time:      0.01 sec


 CPHF trial vector read from record  4101.2

 Starting Coupled-perturbed Hartree-Fock, convergence threshold= 1.0D-06

 ITER   MIC  DIIS      VAR         VARC       CPU
   1     0     1    0.28D-02    0.70D-05     0.00
   2    10     2    0.22D-05    0.21D-05     0.00
   3     1     3    0.33D-06    0.21D-07     0.00

 CPHF convergence reached in  3 macroiterations and   11 microiterations.   Accuracy: 3.3190D-07

 Dipole moments (unrelaxed):           -0.59965868    -0.04552425     0.00124362
 Orbital relaxation contribution:      -0.16113180    -0.01985478     0.00050948
 !!MP2 STATE 1.1 Dipole moment         -0.76079048    -0.06537903     0.00175310
 Dipole moment /Debye                  -1.93360986    -0.16616603     0.00445564
 
 CPU-time for density and lagrangian:                  0.00 sec
 CPU-time for coupled-perturbed hartree-fock:          0.00 sec

 MP2 Gradient info saved on record         5200.1


 **********************************************************************************************************************************
 DATASETS  * FILE   NREC   LENGTH (MB)   RECORD NAMES
              1      21       20.48       500      610      700      900      950      970     1000      129      960     1100   
                                          VAR    BASINP    GEOM    SYMINP    ZMAT    AOBASIS   BASIS     P2S    ABASIS      S 
                                         1400     1410     1200     1210     1080     1600     1650     1700     2100     1380   
                                           T        V       H0       H01     AOSYM     SMH    MOLCAS    OPER      RHF     JKOP   
                                         5200   
                                          MP2  

              2       8        0.52       700     1000      520     2100     4100     4101     5500     9001   
                                         GEOM     BASIS   MCVARS     RHF     CPHF     CPHF     HINFO   DEN_MP2    

 PROGRAMS   *        TOTAL       MP2       MP2        HF       INT
 CPU TIMES  *        11.96      0.04      0.06      0.03      0.30
 REAL TIME  *        14.06 SEC
 DISK USED  *       178.57 MB      
 SF USED    *         3.00 MB      
 GA USED    *         0.00 MB       (max)       0.00 MB       (current)
 **********************************************************************************************************************************
1PROGRAM * ALASKA (Gradient of the energy)     Author: R. Lindh


 MP2      Gradient info restored from record    5200.1

 Number of core orbitals:           3 (   3 )
 Number of closed-shell orbitals:   8 (   8 )
 Number of external orbitals:      31 (  31 )

 Integral thresholds in T2TRAN:            1.0D-10 (PROD)

 Available memory for Transformation: 997885300 words
 Memory needed for incore algorithm:     126437 words
 Minimum memory needed:                   45797 words

 Memory used for transformation:           0.13 MW
 Available memory for gradients:         999.76 MW

 CPU for transformation:                   0.19 sec
 CPU for integrals and gradient:           1.13 sec
 Total CPU:                                1.43 sec

 Prescreening statistics:
 ========================

 Total number of shell quadruplets:        3.08D+02
 Number of shell quadruplets processed:    3.08D+02 (100.00%)

 MP2 GRADIENT FOR STATE 1.1

 Atom          dE/dx               dE/dy               dE/dz

   1        -0.072704891        -0.020511690         0.000495663
   2        -0.003159774         0.007131366        -0.000163030
   3         0.075864665         0.013380324        -0.000332633

 Nuclear force contribution to virial =         0.258602965
    5 tasks completed, CPU=15s Elapsed=15s
 Starting task   6.  CPU=    15.45 sec, Elapsed=    15.46 sec
 Incrementing variable GX2              by  0.005292 ANG   to   -1.365853 ANG


 Recomputing integrals since geometry changed

1PROGRAM * SEWARD (Integral evaluation for generally contracted gaussian basis sets)     Author: Roland Lindh, 1990

 Geometry written to block  1 of record 700


 Point group  C1  



 ATOMIC COORDINATES

 NR  ATOM    CHARGE       X              Y              Z

   1  N       7.00   -0.501730236   -0.289161233    0.000000000
   2  N       7.00   -2.581087609    0.175141897    0.000000000
   3  O       8.00    2.707672892    0.099820643    0.000000000

 Bond lengths in Bohr (Angstrom)

 1-2  2.130564357  1-3  3.232889627
     ( 1.127446104)     ( 1.710771516)

 Bond angles

  2-1-3  160.50223383

 NUCLEAR CHARGE:                   22
 NUMBER OF PRIMITIVE AOS:          81
 NUMBER OF SYMMETRY AOS:           78
 NUMBER OF CONTRACTIONS:           42   (  42A   )
 NUMBER OF CORE ORBITALS:           3   (   3A   )
 NUMBER OF VALENCE ORBITALS:       12   (  12A   )


 NUCLEAR REPULSION ENERGY   50.90798458

 EXTRA SYMMETRY OF AOS IN SYMMETRY 1:   1 1 1 1 1 2 1 1 2 1   1 2 1 2 1 1 1 1 1 2   1 1 2 1 1 2 1 2 1 1   1 1 1 2 1 1 2 1 1 2
                                        1 2

 Eigenvalues of metric

         1 0.358E-02 0.212E-01 0.383E-01 0.664E-01 0.885E-01 0.117E+00 0.117E+00 0.133E+00


 Contracted 2-electron integrals neglected if value below      1.0D-11
 AO integral compression algorithm  1   Integral accuracy      1.0D-11

     1.835 MB (compressed) written to integral file ( 60.4%)

     Node minimum: 0.262 MB, node maximum: 0.262 MB


 NUMBER OF SORTED TWO-ELECTRON INTEGRALS:      58695.     BUFFER LENGTH:  32768
 NUMBER OF SEGMENTS:   1  SEGMENT LENGTH:      58695      RECORD LENGTH: 524288

 Memory used in sort:       0.62 MW

 SORT1 READ      544483. AND WROTE       30569. INTEGRALS IN      1 RECORDS. CPU TIME:     0.01 SEC, REAL TIME:     0.02 SEC
 SORT2 READ      205885. AND WROTE      408156. INTEGRALS IN      7 RECORDS. CPU TIME:     0.00 SEC, REAL TIME:     0.00 SEC

 Node minimum:       57921.  Node maximum:       58695. integrals

 OPERATOR DM      FOR CENTER  0  COORDINATES:    0.000000    0.000000    0.000000
1PROGRAM * RHF-SCF (CLOSED SHELL)       Authors: W. Meyer, H.-J. Werner


 NUMBER OF ELECTRONS:      11+   11-    SPACE SYMMETRY=1    SPIN SYMMETRY: Singlet 
 CONVERGENCE THRESHOLDS:    1.00E-07 (Density)    1.00E-08 (Energy)
 MAX. NUMBER OF ITERATIONS:     1000
 INTERPOLATION TYPE:            DIIS
 INTERPOLATION STEPS:              2 (START)      1 (STEP)
 LEVEL SHIFTS:                  0.00 (CLOSED)  0.00 (OPEN) 

 Number of closed-shell orbitals:   11 (  11 )


 Molecular orbitals read from record     2100.2  Type=RHF/CANONICAL (state 1.1)

 Molecular orbital dump at record        2100.1

 ITERATION    DDIFF          GRAD             ENERGY        2-EL.EN.            DIPOLE MOMENTS         DIIS   ORB.
    1      0.000D+00      0.000D+00      -183.62363299    234.029263   -0.59395   -0.04363    0.00000    0    start
    2      0.000D+00      0.234D-03      -183.62365379    234.081072   -0.59220   -0.04375    0.00000    1    diag
    3      0.559D-03      0.634D-04      -183.62365539    234.070477   -0.59453   -0.04402    0.00000    2    diag
    4      0.183D-03      0.207D-04      -183.62365560    234.070408   -0.59419   -0.04400    0.00000    3    diag
    5      0.544D-04      0.608D-05      -183.62365562    234.071092   -0.59431   -0.04405   -0.00000    4    diag
[...]

 Integral thresholds in T2TRAN:            1.0D-10 (PROD)

 Available memory for Transformation: 997885300 words
 Memory needed for incore algorithm:     126437 words
 Minimum memory needed:                   45797 words

 Memory used for transformation:           0.13 MW
 Available memory for gradients:         999.76 MW

 CPU for transformation:                   0.18 sec
 CPU for integrals and gradient:           1.14 sec
 Total CPU:                                1.43 sec

 Prescreening statistics:
 ========================

 Total number of shell quadruplets:        2.16D+02
 Number of shell quadruplets processed:    2.16D+02 (100.00%)

 MP2 GRADIENT FOR STATE 1.1

 Atom          dE/dx               dE/dy               dE/dz

   1        -0.072731686        -0.020506149        -0.000332655
   2        -0.003134257         0.007125679         0.000058316
   3         0.075865943         0.013380469         0.000274340

 Nuclear force contribution to virial =         0.258548958
   15 tasks completed, CPU=45s Elapsed=45s

 Numerical MP2 hessian completed. CPU-time:    45.36 sec, Elapsed:    45.49 sec

 MP2 hessian saved to record  5300.2

 FREQUENCIES * CALCULATION OF HARMONIC VIBRATIONAL SPECTRA FOR MP2


 Permanent Dipole Moment [debye]
   1-  3   -1.933627   -0.166176    0.000000

 Dipole Moment Norm    1.9407547 [debye]

 Dipole Moment Derivatives [debye/ang]
                   1             2             3             4             5             6             7             8
         1    -1.4597118    -0.2698775     0.0000000    -0.0164229    -0.0030272     0.0000000     1.4767961     0.2727384
         2    -0.0691619     0.6741229     0.0000000    -0.3137790     0.2805218     0.0000000     0.3829794    -0.9548238
         3     0.0000000    -0.0000000     0.8419948     0.0000000    -0.0000000     0.1795373    -0.0000000    -0.0000000
                   9
         1     0.0000000
         2     0.0000000
         3    -1.0216159

 Force Constants (Second Derivatives of the Energy) in [a.u.]
                             GX1         GY1         GZ1         GX2         GY2     
           GX1           0.9326779
           GY1          -0.2750434   0.0965915
           GZ1          -0.0000000   0.0000000   0.0495663
           GX2          -1.1099447   0.2401422   0.0000000   1.1432113
           GY2           0.2469551  -0.0683962   0.0000000  -0.2418239   0.0635803
           GZ2           0.0000000  -0.0000000  -0.0163089  -0.0000000  -0.0000000
           GX3           0.1772483   0.0349030   0.0000000  -0.0332642  -0.0051326
           GY3           0.0280910  -0.0282082   0.0000000   0.0016831   0.0048164
           GZ3          -0.0000000   0.0000000  -0.0332644   0.0000000   0.0000000
                             GZ2         GX3         GY3         GZ3     
           GZ2           0.0104755
           GX3          -0.0000000  -0.1439679
           GY3          -0.0000000  -0.0297745   0.0234041
           GZ3           0.0058354   0.0000000   0.0000000   0.0274340


 Atomic Masses
   1-  3   14.006700   14.006700   15.999400

 Mass weighted Second Derivative Matrix
                             GX1         GY1         GZ1         GX2         GY2     
           GX1           0.0665880
           GY1          -0.0196366   0.0068961
           GZ1          -0.0000000   0.0000000   0.0035388
           GX2          -0.0792438   0.0171448   0.0000000   0.0816189
           GY2           0.0176312  -0.0048831   0.0000000  -0.0172649   0.0045393
           GZ2           0.0000000  -0.0000000  -0.0011644  -0.0000000  -0.0000000
           GX3           0.0118403   0.0023315   0.0000000  -0.0022221  -0.0003429
           GY3           0.0018765  -0.0018843   0.0000000   0.0001124   0.0003217
           GZ3          -0.0000000   0.0000000  -0.0022221   0.0000000   0.0000000
                             GZ2         GX3         GY3         GZ3     
           GZ2           0.0007479
           GX3          -0.0000000  -0.0089983
           GY3          -0.0000000  -0.0018610   0.0014628
           GZ3           0.0003898   0.0000000   0.0000000   0.0017147


 Mass Weighted 2nd Derivative Matrix Eigenvalues
   1-  9   -0.016684   -0.000000   -0.000000    0.000000    0.000666    0.000748    0.005336    0.005424    0.162619

 Mass Weighted 2nd Derivative Matrix Eigenvectors
                   1             2             3             4             5             6             7             8
         1    -0.4925820    -0.0724756     0.0000000     0.5594327    -0.0000000    -0.0687184    -0.0000000    -0.0090256
         2    -0.2203378     0.5595275     0.0000000     0.0724278    -0.0000000    -0.1144835     0.0000000     0.7697157
         3    -0.0000000    -0.0000000     0.5641804    -0.0000000    -0.1453090     0.0000000     0.8127643    -0.0000000
         4    -0.3228003    -0.0724536     0.0000000     0.5594490    -0.0000000     0.1204951    -0.0000000    -0.2286165
         5     0.1066303     0.5596289     0.0000000     0.0725042     0.0000000     0.7683885    -0.0000000    -0.2350442
         6     0.0000000    -0.0000000     0.5641209    -0.0000000     0.7866340    -0.0000000    -0.2509473     0.0000000
         7     0.7628398    -0.0774316     0.0000000     0.5979582    -0.0000000    -0.0484637     0.0000000     0.2224116
         8     0.1063932     0.5977011     0.0000000     0.0774289    -0.0000000    -0.6122766    -0.0000000    -0.5004778
         9    -0.0000000    -0.0000000     0.6028831    -0.0000000    -0.6000769     0.0000000    -0.5257753     0.0000000
                   9
         1    -0.6590460
         2     0.1660291
         3     0.0000000
         4     0.7146906
         5    -0.1565952
         6    -0.0000000
         7    -0.0520586
         8    -0.0088281
         9     0.0000000

 Imaginary Vibration  Wavenumber
        Nr             [1/cm] 
        1              663.98
        2                0.06
        3                0.02

   Low Vibration      Wavenumber
        Nr             [1/cm] 
        1                0.03

     Vibration        Wavenumber
        Nr             [1/cm] 
        1              132.62
        2              140.58
        3              375.49
        4              378.59
        5             2072.94

 FREQUENCIES * CALCULATION OF NORMAL MODES FOR MP2


 Atomic Coordinates

  Nr  Atom  Charge       X              Y              Z

   1   N     7.00   -0.501730236   -0.289161233    0.000000000
   2   N     7.00   -2.591087609    0.175141897    0.000000000
   3   O     8.00    2.707672892    0.099820643    0.000000000

 Frequencies dumped to record   5400.2
 
 Molecule is not in standard orientation!
 Symmetry information for normal modes not available!

 Normal Modes

                              1 A         2 A         3 A         4 Err       5 Err
 Wavenumbers [cm-1]          132.62      140.58      375.49      378.59     2072.94
 Intensities [km/mol]          1.06        1.24        3.93        3.34        2.13
 Intensities [relative]        9.99       11.73       37.09       31.49       20.10
           GX1             -0.00000    -0.01836    -0.00000    -0.00241    -0.17610
           GY1             -0.00000    -0.03059     0.00000     0.20567     0.04436
           GZ1             -0.03883     0.00000     0.21717    -0.00000     0.00000
           GX2             -0.00000     0.03220    -0.00000    -0.06109     0.19096
           GY2              0.00000     0.20531    -0.00000    -0.06280    -0.04184
           GZ2              0.21019    -0.00000    -0.06705     0.00000    -0.00000
           GX3             -0.00000    -0.01212     0.00000     0.05560    -0.01301
           GY3             -0.00000    -0.15307    -0.00000    -0.12512    -0.00221
           GZ3             -0.15002     0.00000    -0.13145     0.00000     0.00000


 Normal Modes of imaginary frequencies

                                  1           2           3
 Wavenumbers [cm-1]          663.98        0.06        0.02
 Intensities [km/mol]         10.61        0.00        0.00
 Intensities [relative]      100.00        0.00        0.00
           GX1             -0.13162    -0.01937     0.00000
           GY1             -0.05887     0.14950     0.00000
           GZ1             -0.00000    -0.00000     0.15075
           GX2             -0.08625    -0.01936     0.00000
           GY2              0.02849     0.14953     0.00000
           GZ2              0.00000    -0.00000     0.15073
           GX3              0.19071    -0.01936     0.00000
           GY3              0.02660     0.14943     0.00000
           GZ3             -0.00000    -0.00000     0.15072


 Normal Modes of low/zero frequencies

                                  1
 Wavenumbers [cm-1]            0.03
 Intensities [km/mol]          0.00
 Intensities [relative]        0.00
           GX1              0.14948
           GY1              0.01935
           GZ1             -0.00000
           GX2              0.14948
           GY2              0.01937
           GZ2             -0.00000
           GX3              0.14949
           GY3              0.01936
           GZ3             -0.00000


 Zero point energy:  0.00706281 [H]     1550.11 [1/CM]       18.54 [KJ/MOL]

 Recomputing wavefunction at initial geometry


 Recomputing integrals since geometry changed

1PROGRAM * SEWARD (Integral evaluation for generally contracted gaussian basis sets)     Author: Roland Lindh, 1990

 Geometry written to block  1 of record 700


 Point group  C1  



 ATOMIC COORDINATES

 NR  ATOM    CHARGE       X              Y              Z

   1  N       7.00   -0.501730236   -0.289161233    0.000000000
   2  N       7.00   -2.591087609    0.175141897    0.000000000
   3  O       8.00    2.707672892    0.099820643    0.000000000

 Bond lengths in Bohr (Angstrom)

 1-2  2.140325122  1-3  3.232889627
     ( 1.132611279)     ( 1.710771516)

 Bond angles

  2-1-3  160.56057162

 NUCLEAR CHARGE:                   22
 NUMBER OF PRIMITIVE AOS:          81
 NUMBER OF SYMMETRY AOS:           78
 NUMBER OF CONTRACTIONS:           42   (  42A   )
 NUMBER OF CORE ORBITALS:           3   (   3A   )
 NUMBER OF VALENCE ORBITALS:       12   (  12A   )


 NUCLEAR REPULSION ENERGY   50.78312459

 EXTRA SYMMETRY OF AOS IN SYMMETRY 1:   1 1 1 1 1 2 1 1 2 1   1 2 1 2 1 1 1 1 1 2   1 1 2 1 1 2 1 2 1 1   1 1 1 2 1 1 2 1 1 2
                                        1 2

 Eigenvalues of metric

         1 0.365E-02 0.213E-01 0.385E-01 0.675E-01 0.892E-01 0.118E+00 0.118E+00 0.133E+00


 Contracted 2-electron integrals neglected if value below      1.0D-11
 AO integral compression algorithm  1   Integral accuracy      1.0D-11

     1.835 MB (compressed) written to integral file ( 60.4%)

     Node minimum: 0.262 MB, node maximum: 0.262 MB


 NUMBER OF SORTED TWO-ELECTRON INTEGRALS:      58695.     BUFFER LENGTH:  32768
 NUMBER OF SEGMENTS:   1  SEGMENT LENGTH:      58695      RECORD LENGTH: 524288

 Memory used in sort:       0.62 MW

 SORT1 READ      544483. AND WROTE       30568. INTEGRALS IN      1 RECORDS. CPU TIME:     0.01 SEC, REAL TIME:     0.01 SEC
 SORT2 READ      205882. AND WROTE      408156. INTEGRALS IN      7 RECORDS. CPU TIME:     0.01 SEC, REAL TIME:     0.01 SEC

 Node minimum:       57921.  Node maximum:       58695. integrals

 OPERATOR DM      FOR CENTER  0  COORDINATES:    0.000000    0.000000    0.000000
1PROGRAM * RHF-SCF (CLOSED SHELL)       Authors: W. Meyer, H.-J. Werner


 NUMBER OF ELECTRONS:      11+   11-    SPACE SYMMETRY=1    SPIN SYMMETRY: Singlet 
 CONVERGENCE THRESHOLDS:    1.00E-06 (Density)    1.00E-08 (Energy)
 MAX. NUMBER OF ITERATIONS:     1000
 INTERPOLATION TYPE:            DIIS
 INTERPOLATION STEPS:              2 (START)      1 (STEP)
 LEVEL SHIFTS:                  0.00 (CLOSED)  0.00 (OPEN) 

 Number of closed-shell orbitals:   11 (  11 )


 Molecular orbitals read from record     2100.2  Type=RHF/CANONICAL (state 1.1)

 Molecular orbital dump at record        2100.2

 ITERATION    DDIFF          GRAD             ENERGY        2-EL.EN.            DIPOLE MOMENTS         DIIS   ORB.
    1      0.000D+00      0.000D+00      -183.62194649    233.832583   -0.59389   -0.04344    0.00000    0    start
    2      0.000D+00      0.756D-08      -183.62194649    233.832583   -0.59389   -0.04344    0.00000    0    orth

 Final occupancy:  11

 !RHF STATE 1.1 Energy               -183.621946489303
 Nuclear energy                        50.78312459
 One-electron energy                 -351.32136237
 Two-electron energy                  116.91629129
 Virial quotient                       -1.00295598
 !RHF STATE 1.1 Dipole moment          -0.59389272    -0.04343544     0.00000000
 Dipole moment /Debye                  -1.50942585    -0.11039464     0.00000000

 Orbital energies:

         1.1          2.1          3.1          4.1          5.1          6.1          7.1          8.1          9.1         10.1
    -20.649777   -15.764537   -15.745973    -1.496251    -1.252667    -0.823954    -0.672068    -0.651175    -0.650860    -0.518790

        11.1         12.1         13.1
     -0.518338     0.074138     0.120910

 HOMO     11.1    -0.518338 =     -14.1047eV
 LUMO     12.1     0.074138 =       2.0174eV
 LUMO-HOMO         0.592476 =      16.1221eV


 **********************************************************************************************************************************
 DATASETS  * FILE   NREC   LENGTH (MB)   RECORD NAMES
              1      18       19.17       500      610      700      900      950      970     1000      129      960     1100   
                                          VAR    BASINP    GEOM    SYMINP    ZMAT    AOBASIS   BASIS     P2S    ABASIS      S 
                                         1400     1410     1200     1210     1080     1600     1650     1700   
                                           T        V       H0       H01     AOSYM     SMH    MOLCAS    OPER   

              2       9        0.51       700     1000      520     2100     4100     4101     5300     5400     5450   
                                         GEOM     BASIS   MCVARS     RHF     CPHF     CPHF     HESS     FREQ     NMOD   

 PROGRAMS   *        TOTAL        HF       MP2        HF       INT
 CPU TIMES  *        44.16      0.28      0.06      0.03      0.30
 REAL TIME  *        46.94 SEC
 DISK USED  *       178.57 MB      
 SF USED    *         3.00 MB      
 GA USED    *         0.00 MB       (max)       0.00 MB       (current)
 **********************************************************************************************************************************


1PROGRAM * MP2 (Closed-shell)     Authors: C. Hampel, H.-J. Werner, 1991, M. Deegan, P.J. Knowles, 1992


 Convergence thresholds:  THRVAR = 1.00D-12  THRDEN = 1.00D-08

 Number of core orbitals:           3 (   3 )
 Number of closed-shell orbitals:   8 (   8 )
 Number of external orbitals:      31 (  31 )

 Molecular orbitals read from record     2100.2  Type=RHF/CANONICAL (state 1.1)

 Number of N-1 electron functions:               8
 Number of N-2 electron functions:              36
 Number of singly external CSFs:               248
 Number of doubly external CSFs:             30876
 Total number of CSFs:                       31125

 Length of J-op  integral file:               0.00 MB
 Length of K-op  integral file:               0.12 MB

 Integral transformation finished. Total CPU:   0.01 sec, npass=  1  Memory used:   0.20 MW

 Memory needed for MP2:                      0.01 MW

 SCS-MP2 correlation energy:           -0.459209212780   (PS=  1.200000  PT=  0.333333)
 SCS-MP2 total energy:               -184.081155702083


  Reference energy                   -183.621946489303
  MP2 singlet pair energy              -0.287249213800
  MP2 triplet pair energy              -0.184034179640
  MP2 correlation energy               -0.471283393440

 !MP2 total energy                   -184.093229882743

 KEXT needed  1 integral passes. Memory used:   0.18 MW  CPU time:      0.00 sec


 CPHF trial vector read from record  4101.2

 Starting Coupled-perturbed Hartree-Fock, convergence threshold= 1.0D-06

 ITER   MIC  DIIS      VAR         VARC       CPU
   1     0     1    0.65D-06    0.35D-08     0.00

 CPHF convergence reached in  1 macroiterations and    0 microiterations.   Accuracy: 6.5117D-07

 CPHF solution written to record  4101.2

 Dipole moments (unrelaxed):           -0.59967012    -0.04552855    -0.00000000
 Orbital relaxation contribution:      -0.16112732    -0.01985440     0.00000000
 !!MP2 STATE 1.1 Dipole moment         -0.76079744    -0.06538294     0.00000000
 Dipole moment /Debye                  -1.93362755    -0.16617598     0.00000000
 
 CPU-time for density and lagrangian:                  0.00 sec
 CPU-time for coupled-perturbed hartree-fock:          0.00 sec

 MP2 Gradient info saved on record         5200.1


 **********************************************************************************************************************************
 DATASETS  * FILE   NREC   LENGTH (MB)   RECORD NAMES
              1      20       20.30       500      610      700      900      950      970     1000      129      960     1100   
                                          VAR    BASINP    GEOM    SYMINP    ZMAT    AOBASIS   BASIS     P2S    ABASIS      S 
                                         1400     1410     1200     1210     1080     1600     1650     1700     1380     5200   
                                           T        V       H0       H01     AOSYM     SMH    MOLCAS    OPER     JKOP      MP2  

              2       9        0.51       700     1000      520     2100     4100     4101     5300     5400     5450   
                                         GEOM     BASIS   MCVARS     RHF     CPHF     CPHF     HESS     FREQ     NMOD   

 PROGRAMS   *        TOTAL       MP2       MP2        HF       INT
 CPU TIMES  *        44.21      0.05      0.06      0.03      0.30
 REAL TIME  *        46.99 SEC
 DISK USED  *       178.57 MB      
 SF USED    *         3.00 MB      
 GA USED    *         0.00 MB       (max)       0.00 MB       (current)
 **********************************************************************************************************************************


 **********************************************************************************************************************************
 DATASETS  * FILE   NREC   LENGTH (MB)   RECORD NAMES
              1      20       20.30       500      610      700      900      950      970     1000      129      960     1100   
                                          VAR    BASINP    GEOM    SYMINP    ZMAT    AOBASIS   BASIS     P2S    ABASIS      S 
                                         1400     1410     1200     1210     1080     1600     1650     1700     1380     5200   
                                           T        V       H0       H01     AOSYM     SMH    MOLCAS    OPER     JKOP      MP2  

              2       9        0.51       700     1000      520     2100     4100     4101     5300     5400     5450   
                                         GEOM     BASIS   MCVARS     RHF     CPHF     CPHF     HESS     FREQ     NMOD   

 PROGRAMS   *        TOTAL      FREQ       MP2        HF       INT
 CPU TIMES  *        44.21     43.70      0.06      0.03      0.30
 REAL TIME  *        46.99 SEC
 DISK USED  *       178.57 MB      
 SF USED    *         3.00 MB      
 GA USED    *         0.00 MB       (max)       0.00 MB       (current)
 **********************************************************************************************************************************

 MP2/cc-pVDZ energy=   -184.093229882743

        MP2             HF-SCF  
   -184.09322987   -183.62194649
 **********************************************************************************************************************************
 Variable memory released
