comment:                                                                
Force     UMP2-FC                                                     CC-pVDZ             
Number of atoms                            I                3
Info1-9                                    I   N=           9
          16          15           0           0           0         100
           5           2           1
Full Title                                 C   N=           1
comment:    
Route                                      C   N=           7
#P uhf mp2/cc-pvdz # SCF=(xqc) # Force=() # int=ultrafine # 
fchk NoSym guess=mix    
Charge                                     I                0
Multiplicity                               I                3
Number of electrons                        I               20
Number of alpha electrons                  I               11
Number of beta electrons                   I                9
Number of basis functions                  I               42
Number of independent functions            I               42
Number of point charges in /Mol/           I                0
Number of translation vectors              I                0
Atomic numbers                             I   N=           3
           7           6           7
Nuclear charges                            R   N=           3
  7.00000000E+00  6.00000000E+00  7.00000000E+00
Current cartesian coordinates              R   N=           9
 -2.19894202E-01 -2.19894202E-01  1.99361761E+00  6.28761017E-01  6.28761017E-01
  0.00000000E+00 -2.19894202E-01 -2.19894202E-01 -1.99361761E+00
Number of symbols in /Mol/                 I                0
Force Field                                I                0
Atom Types                                 C   N=           3
                                    
Int Atom Types                             I   N=           3
           0           0           0
MM charges                                 R   N=           3
  0.00000000E+00  0.00000000E+00  0.00000000E+00
Integer atomic weights                     I   N=           3
          14          12          14
Real atomic weights                        R   N=           3
  1.40030740E+01  1.20000000E+01  1.40030740E+01
Atom fragment info                         I   N=           3
           0           0           0
Atom residue num                           I   N=           3
           0           0           0
Nuclear spins                              I   N=           3
           2           0           2
Nuclear ZEff                               R   N=           3
 -4.55000000E+00 -3.60000000E+00 -4.55000000E+00
Nuclear ZNuc                               R   N=           3
  7.00000000E+00  6.00000000E+00  7.00000000E+00
Nuclear QMom                               R   N=           3
  2.04400000E+00  0.00000000E+00  2.04400000E+00
Nuclear GFac                               R   N=           3
  4.03761000E-01  0.00000000E+00  4.03761000E-01
MicOpt                                     I   N=           3
          -1          -1          -1
Number of residues                         I                0
Number of secondary structures             I                0
Number of contracted shells                I               18
Number of primitive shells                 I               60
Pure/Cartesian d shells                    I                0
Pure/Cartesian f shells                    I                0
Highest angular momentum                   I                2
Largest degree of contraction              I                7
Shell types                                I   N=          18
           0           0           0           1           1          -2
           0           0           0           1           1          -2
           0           0           0           1           1          -2
Number of primitives per shell             I   N=          18
           7           7           1           3           1           1
           7           7           1           3           1           1
           7           7           1           3           1           1
Shell to atom map                          I   N=          18
           1           1           1           1           1           1
           2           2           2           2           2           2
           3           3           3           3           3           3
Primitive exponents                        R   N=          60
  9.04600000E+03  1.35700000E+03  3.09300000E+02  8.77300000E+01  2.85600000E+01
  1.02100000E+01  3.83800000E+00  9.04600000E+03  3.09300000E+02  8.77300000E+01
  2.85600000E+01  1.02100000E+01  3.83800000E+00  7.46600000E-01  2.24800000E-01
  1.35500000E+01  2.91700000E+00  7.97300000E-01  2.18500000E-01  8.17000000E-01
  6.66500000E+03  1.00000000E+03  2.28000000E+02  6.47100000E+01  2.10600000E+01
  7.49500000E+00  2.79700000E+00  6.66500000E+03  2.28000000E+02  6.47100000E+01
  2.10600000E+01  7.49500000E+00  2.79700000E+00  5.21500000E-01  1.59600000E-01
  9.43900000E+00  2.00200000E+00  5.45600000E-01  1.51700000E-01  5.50000000E-01
  9.04600000E+03  1.35700000E+03  3.09300000E+02  8.77300000E+01  2.85600000E+01
  1.02100000E+01  3.83800000E+00  9.04600000E+03  3.09300000E+02  8.77300000E+01
  2.85600000E+01  1.02100000E+01  3.83800000E+00  7.46600000E-01  2.24800000E-01
  1.35500000E+01  2.91700000E+00  7.97300000E-01  2.18500000E-01  8.17000000E-01
Contraction coefficients                   R   N=          60
  7.01708743E-04  5.40299880E-03  2.74729510E-02  1.03514580E-01  2.79586579E-01
  4.51317241E-01  2.80626875E-01  7.77446797E-06  3.00742072E-04 -2.80016549E-03
 -9.89708505E-03 -1.14331114E-01 -1.18162383E-01  1.09786885E+00  1.00000000E+00
  5.89056768E-02  3.20461107E-01  7.53042062E-01  1.00000000E+00  1.00000000E+00
  6.93516317E-04  5.34150243E-03  2.71366714E-02  1.01992385E-01  2.75508636E-01
  4.51086433E-01  2.87565745E-01  7.73354740E-06  2.78072137E-04 -2.57875654E-03
 -8.95087684E-03 -1.06058855E-01 -1.31517686E-01  1.09948660E+00  1.00000000E+00
  5.69792516E-02  3.13207212E-01  7.60376742E-01  1.00000000E+00  1.00000000E+00
  7.01708743E-04  5.40299880E-03  2.74729510E-02  1.03514580E-01  2.79586579E-01
  4.51317241E-01  2.80626875E-01  7.77446797E-06  3.00742072E-04 -2.80016549E-03
 -9.89708505E-03 -1.14331114E-01 -1.18162383E-01  1.09786885E+00  1.00000000E+00
  5.89056768E-02  3.20461107E-01  7.53042062E-01  1.00000000E+00  1.00000000E+00
Coordinates of each shell                  R   N=          54
 -2.19894202E-01 -2.19894202E-01  1.99361761E+00 -2.19894202E-01 -2.19894202E-01
  1.99361761E+00 -2.19894202E-01 -2.19894202E-01  1.99361761E+00 -2.19894202E-01
 -2.19894202E-01  1.99361761E+00 -2.19894202E-01 -2.19894202E-01  1.99361761E+00
 -2.19894202E-01 -2.19894202E-01  1.99361761E+00  6.28761017E-01  6.28761017E-01
  0.00000000E+00  6.28761017E-01  6.28761017E-01  0.00000000E+00  6.28761017E-01
  6.28761017E-01  0.00000000E+00  6.28761017E-01  6.28761017E-01  0.00000000E+00
  6.28761017E-01  6.28761017E-01  0.00000000E+00  6.28761017E-01  6.28761017E-01
  0.00000000E+00 -2.19894202E-01 -2.19894202E-01 -1.99361761E+00 -2.19894202E-01
 -2.19894202E-01 -1.99361761E+00 -2.19894202E-01 -2.19894202E-01 -1.99361761E+00
 -2.19894202E-01 -2.19894202E-01 -1.99361761E+00 -2.19894202E-01 -2.19894202E-01
 -1.99361761E+00 -2.19894202E-01 -2.19894202E-01 -1.99361761E+00
Constraint Structure                       R   N=           9
 -2.19894202E-01 -2.19894202E-01  1.99361761E+00  6.28761017E-01  6.28761017E-01
  0.00000000E+00 -2.19894202E-01 -2.19894202E-01 -1.99361761E+00
Num ILSW                                   I              100
ILSW                                       I   N=         100
           1           0           0           0           2           0
           0           0           3           0           0          -1
           5           0           0           0           2           0
           0           0           0           0           1           0
           1           1           0           0           0           0
           0           0      100000           0          -1           0
           0           0           0           0           0           0
           0           0           0           1           0           0
           0           0           1           0           0           0
           0           0           4          41           0           0
           0           0           0           0           0           0
           0           0           0           3           0           0
           0           0           0           0           0           0
           0           0           0           0           0           0
           0           0           0           0           0           0
           0           0           0           0           0           0
           0           0           0           0
Num RLSW                                   I               41
RLSW                                       R   N=          41
  1.00000000E+00  1.00000000E+00  1.00000000E+00  1.00000000E+00  1.00000000E+00
  0.00000000E+00  0.00000000E+00  1.00000000E+00  0.00000000E+00  0.00000000E+00
  0.00000000E+00  0.00000000E+00  1.00000000E+00  0.00000000E+00  0.00000000E+00
  0.00000000E+00  0.00000000E+00  1.00000000E+00  0.00000000E+00  0.00000000E+00
  0.00000000E+00  0.00000000E+00  1.00000000E+00  0.00000000E+00  0.00000000E+00
  0.00000000E+00  0.00000000E+00  1.00000000E+00  0.00000000E+00  0.00000000E+00
  0.00000000E+00  0.00000000E+00  1.00000000E+00  0.00000000E+00  0.00000000E+00
  0.00000000E+00  0.00000000E+00  0.00000000E+00  1.00000000E+00  1.00000000E+00
  0.00000000E+00
MxBond                                     I                2
NBond                                      I   N=           3
           1           2           1
IBond                                      I   N=           6
           2           0           1           3           2           0
RBond                                      R   N=           6
  2.00000000E+00  0.00000000E+00  2.00000000E+00  2.00000000E+00  2.00000000E+00
  0.00000000E+00
Virial Ratio                               R      1.997706451443329E+00
SCF Energy                                 R     -1.466736334071871E+02
MP2 Energy                                 R     -1.469862189303234E+02
Total Energy                               R     -1.469862189303234E+02
PUHF Energy                                R     -1.467113411772614E+02
PMP2-0 Energy                              R     -1.470203777892662E+02
Post-SCF wavefunction norm                 R      1.049040213285059E+00
S**2                                       R      2.657759281087017E+00
S**2 after annihilation                    R      2.181131243934942E+00
S**2 corrected to first order              R      2.511140168248799E+00
RMS Force                                  R      4.718228980816083E-02
RMS Density                                R      8.182492966008953E-09
Job Status                                 I                1
Nuclear derivative order                   I                1
External E-field                           R   N=          35
  0.00000000E+00  0.00000000E+00  0.00000000E+00  0.00000000E+00  0.00000000E+00
  0.00000000E+00  0.00000000E+00  0.00000000E+00  0.00000000E+00  0.00000000E+00
  0.00000000E+00  0.00000000E+00  0.00000000E+00  0.00000000E+00  0.00000000E+00
  0.00000000E+00  0.00000000E+00  0.00000000E+00  0.00000000E+00  0.00000000E+00
  0.00000000E+00  0.00000000E+00  0.00000000E+00  0.00000000E+00  0.00000000E+00
  0.00000000E+00  0.00000000E+00  0.00000000E+00  0.00000000E+00  0.00000000E+00
  0.00000000E+00  0.00000000E+00  0.00000000E+00  0.00000000E+00  0.00000000E+00
IOpCl                                      I                1
IROHF                                      I                0
Alpha Orbital Energies                     R   N=          42
 -1.56635717E+01 -1.56634927E+01 -1.13100759E+01 -1.38231734E+00 -1.22537314E+00
 -7.03045782E-01 -6.57817439E-01 -6.50757711E-01 -6.25440650E-01 -5.16574420E-01
 -4.95562626E-01  8.58253060E-02  2.23171364E-01  4.20696174E-01  4.36733764E-01
  6.76300513E-01  7.22987904E-01  8.07149208E-01  8.20981107E-01  8.88557132E-01
  9.21036467E-01  9.26926200E-01  9.85739401E-01  9.93278724E-01  1.06584106E+00
  1.33449069E+00  1.36992561E+00  1.41341618E+00  1.55110789E+00  1.62503905E+00
  1.86396932E+00  1.88211245E+00  1.98625422E+00  2.02969704E+00  2.20997480E+00
  2.29712846E+00  2.55866209E+00  2.56879730E+00  2.70232222E+00  2.90905243E+00
  2.96237224E+00  3.05952319E+00
Beta Orbital Energies                      R   N=          42
 -1.56105154E+01 -1.56104888E+01 -1.13464861E+01 -1.28708244E+00 -1.03427922E+00
 -6.45585981E-01 -5.56168461E-01 -5.52197611E-01 -5.40646241E-01  8.25521249E-02
  1.21386497E-01  1.32969129E-01  2.79258276E-01  4.42474674E-01  4.53454113E-01
  6.11290465E-01  6.38220233E-01  8.32819751E-01  8.40763629E-01  9.28330410E-01
  9.39778890E-01  1.04691735E+00  1.09796509E+00  1.11330392E+00  1.17494752E+00
  1.33676842E+00  1.36799542E+00  1.44614453E+00  1.59622769E+00  1.64267431E+00
  1.91786025E+00  2.01026577E+00  2.14297290E+00  2.15868494E+00  2.29641842E+00
  2.39197873E+00  2.59496749E+00  2.61486562E+00  2.74393163E+00  2.95245972E+00
  3.00225545E+00  3.09432485E+00
Alpha MO coefficients                      R   N=        1764
  7.05042841E-01  1.36263720E-02 -6.09617299E-03  7.98504998E-04  7.98504591E-04
 -1.70524792E-03 -1.00616771E-03 -1.00616754E-03  1.65981356E-03  1.15032479E-04
  1.81195048E-05  1.81193973E-05 -2.59245098E-11 -1.53964225E-04  2.04391910E-08
 -7.39231854E-08  8.01512614E-07  3.68709526E-08  3.68458489E-08 -5.36775855E-04
 -1.93282559E-07 -1.93369290E-07  3.09384613E-03 -8.01226237E-08  7.55804607E-04
  7.55804610E-04 -1.33898235E-11 -1.70499092E-08 -7.04868890E-01 -1.36231310E-02
  6.09468324E-03 -7.98317736E-04 -7.98317830E-04 -1.70487739E-03  1.00602459E-03
  1.00602465E-03  1.65934512E-03 -1.15002135E-04  1.81131304E-05  1.81131750E-05
 -7.33981560E-12  1.53992992E-04  7.04833523E-01  1.31331625E-02 -6.03693655E-03
  7.56764509E-04  7.56764101E-04 -1.50256816E-03 -5.79016590E-04 -5.79016428E-04
  1.89869326E-03  1.22588281E-04  2.53795643E-05  2.53794583E-05 -2.46586766E-11
  1.17140664E-04  1.65676096E-04 -5.99403817E-04  6.49697107E-03  2.98716618E-04
  2.98716611E-04  6.62646090E-08 -1.56741166E-03 -1.56741171E-03 -3.81609664E-07
 -6.49512297E-04 -9.32683968E-08 -9.32730125E-08 -4.47833154E-12 -1.38235587E-04
  7.05007483E-01  1.31365248E-02 -6.03844061E-03  7.56961032E-04  7.56961131E-04
  1.50298924E-03 -5.79264628E-04 -5.79264645E-04 -1.89910293E-03  1.22616556E-04
 -2.53839166E-05 -2.53839547E-05 -4.61352065E-13  1.17102793E-04 -5.84779997E-04
 -9.87135466E-05 -2.78026884E-04 -5.69986209E-05 -5.69986042E-05 -2.01623508E-04
 -4.04674065E-04 -4.04674050E-04  4.44297918E-04  2.46528435E-04  8.02503685E-06
  8.02502345E-06 -1.04736553E-11 -1.42719935E-04  9.97350772E-01  1.55881051E-02
 -2.38028110E-03 -6.64612247E-04 -6.64612368E-04  9.60750494E-11 -2.68587020E-05
 -2.68586647E-05 -1.12328094E-11  1.54572347E-03  8.23455132E-11  6.53277749E-12
 -1.49526698E-11  9.90487778E-05 -5.84780005E-04 -9.87135691E-05 -2.78026859E-04
 -5.69985739E-05 -5.69985804E-05  2.01623496E-04 -4.04674030E-04 -4.04674043E-04
 -4.44297895E-04  2.46528434E-04 -8.02500964E-06 -8.02499980E-06  2.38074195E-13
 -1.42719923E-04 -1.29997688E-01  2.83944912E-01  2.42744388E-01  2.92246142E-02
  2.92246013E-02 -1.23289248E-01  1.06292353E-02  1.06292299E-02 -4.29052221E-02
  8.73801799E-03 -3.68229959E-03 -3.68230155E-03 -6.73669838E-10  4.34399801E-04
 -1.35453280E-01  2.54485814E-01  3.77090937E-02 -9.08176429E-02 -9.08176462E-02
  5.02987262E-09  7.62920713E-03  7.62920675E-03 -1.68801164E-11  2.70546888E-02
  1.37238767E-09 -3.32072155E-10 -5.53608075E-10  1.03082673E-02 -1.29997684E-01
  2.83944902E-01  2.42744379E-01  2.92246001E-02  2.92246020E-02  1.23289252E-01
  1.06292287E-02  1.06292293E-02  4.29052238E-02  8.73801539E-03  3.68230207E-03
  3.68230097E-03 -1.78186685E-10  4.34402297E-04 -1.51427893E-01  3.30075881E-01
  3.06417373E-01  4.65909348E-02  4.65909141E-02 -7.43438138E-02  1.80443077E-02
  1.80442983E-02 -2.44043116E-02 -1.53253404E-03 -2.26939765E-03 -2.26940059E-03
 -4.61719602E-10  4.06539295E-03  1.67813814E-09 -2.64527667E-09  1.84804135E-09
  7.68952476E-09  1.89368173E-09  2.79301527E-01 -2.93506196E-10  6.31256269E-10
  1.39094237E-02  6.15023006E-10 -2.99083796E-02 -2.99083802E-02 -1.08798839E-10
 -3.62754351E-11  1.51427896E-01 -3.30075888E-01 -3.06417378E-01 -4.65909140E-02
 -4.65909191E-02 -7.43438324E-02 -1.80442979E-02 -1.80443001E-02 -2.44043185E-02
  1.53253684E-03 -2.26940195E-03 -2.26940073E-03  5.18288505E-10 -4.06539604E-03
 -8.21153973E-02  1.86588551E-01  2.92171397E-01 -1.69021279E-02 -1.69022663E-02
  3.56301681E-01 -5.77476662E-03 -5.77484772E-03  1.95183726E-01 -2.45527632E-02
  1.51935500E-02  1.51935476E-02  1.54404685E-09 -2.94134571E-03  8.84267867E-02
 -2.16996122E-01 -4.87700397E-02  1.01737815E-01  1.01737778E-01 -3.16363534E-08
  3.07493983E-03  3.07493056E-03 -1.06568899E-08  1.20791243E-02  5.40703310E-09
  1.34885468E-09 -3.46182931E-09 -1.09847546E-02 -8.21153941E-02  1.86588541E-01
  2.92171366E-01 -1.69022094E-02 -1.69022246E-02 -3.56301571E-01 -5.77482107E-03
 -5.77483045E-03 -1.95183666E-01 -2.45527655E-02 -1.51935395E-02 -1.51935444E-02
  1.13992668E-09 -2.94134214E-03 -7.22862339E-09  2.23583573E-08  4.08026902E-08
  2.82139252E-01 -2.82139487E-01  1.42704808E-08  1.68452424E-01 -1.68452559E-01
  6.47115089E-10  7.78937202E-10 -1.83887469E-02  1.83887618E-02  1.62495299E-02
 -1.01119232E-08  1.07570003E-08 -1.88968219E-08 -3.12683889E-08  1.81255806E-01
 -1.81255885E-01 -9.57312399E-08  7.23060578E-02 -7.23060890E-02 -1.33707516E-08
 -1.62882644E-08  5.55585565E-09  1.15045919E-09 -3.37729979E-02  7.68860857E-09
  1.79205918E-08 -3.85371315E-08 -7.94484515E-08  2.82139318E-01 -2.82139348E-01
  1.48833341E-07  1.68452457E-01 -1.68452482E-01  8.06063088E-08  8.81552384E-09
  1.83887599E-02 -1.83887518E-02  1.62495237E-02  1.81161555E-09  2.33403145E-02
 -6.38791696E-02 -8.46441771E-02  2.65067709E-01  2.65067576E-01  9.87478064E-02
  1.59896654E-01  1.59896576E-01  6.08223201E-02 -1.00463720E-02 -1.42103927E-02
 -1.42103841E-02  8.09084803E-09  1.17885555E-02 -8.18896982E-02  1.75338525E-01
  1.52448830E-01  1.06757107E-01  1.06757013E-01 -1.83852894E-07  5.63638618E-02
  5.63638219E-02 -1.08448609E-08  5.41751656E-02  5.79801197E-09  5.19419574E-09
 -8.33142427E-09 -2.71941870E-02  2.33403725E-02 -6.38793083E-02 -8.46444205E-02
  2.65067983E-01  2.65067830E-01 -9.87475541E-02  1.59896812E-01  1.59896721E-01
 -6.08221922E-02 -1.00463621E-02  1.42104204E-02  1.42104109E-02  3.11720878E-09
  1.17885653E-02  5.63607945E-02 -1.30776250E-01 -2.42798559E-01  2.07631862E-01
  2.07631770E-01 -2.51209589E-01  1.20475490E-01  1.20475436E-01 -1.35587630E-01
  8.21146928E-03 -2.20346854E-02 -2.20346702E-02  7.60165561E-09  1.37680103E-02
 -4.29704838E-08  9.11915050E-08  9.21970064E-08  1.36143297E-07  2.22063591E-08
  3.36979326E-01  7.33020228E-08  1.70014857E-08  4.00932413E-02  3.18371368E-08
 -6.50747163E-03 -6.50746711E-03 -9.48246994E-09 -1.66443636E-08 -5.63607772E-02
  1.30776195E-01  2.42798509E-01 -2.07631448E-01 -2.07631635E-01 -2.51209741E-01
 -1.20475236E-01 -1.20475350E-01 -1.35587719E-01 -8.21149287E-03 -2.20346550E-02
 -2.20346693E-02  6.37804725E-09 -1.37679909E-02  1.40500273E-08 -2.93473355E-08
 -5.03890663E-08  3.35660629E-01 -3.35660553E-01 -4.86826516E-09  2.37225258E-01
 -2.37225204E-01 -6.64388897E-09 -1.91042214E-09 -1.34168991E-02  1.34168926E-02
  1.30133459E-02 -2.81528049E-09 -7.40017402E-09  2.05903196E-08 -1.33845248E-09
 -2.04858394E-08  6.60841546E-09  1.39401107E-08 -6.13454893E-09  9.87413756E-09
  5.19930904E-09 -1.25698977E-09  4.02327477E-02 -4.02327423E-02  2.51861402E-09
  1.59216116E-10  2.45670450E-09 -3.98310150E-09 -6.15003363E-09 -3.35660643E-01
  3.35660582E-01  4.45733856E-08 -2.37225266E-01  2.37225226E-01  3.19430605E-08
  2.40702492E-09 -1.34169015E-02  1.34169018E-02 -1.30133414E-02 -2.58168897E-09
  7.61065237E-03 -1.91186349E-02 -4.81411109E-02  2.27646856E-01  2.27646924E-01
  3.82733578E-01  1.58862003E-01  1.58862052E-01  2.67226878E-01 -2.13836116E-02
 -2.14430018E-04 -2.14439651E-04  1.53908407E-09  9.07202430E-03 -1.36947936E-08
  3.44526814E-08  1.17160189E-08 -5.88329515E-09  1.35808066E-08 -6.56573651E-02
  7.56523300E-09  2.21185009E-08  6.91413511E-02  2.33391902E-10  3.01288460E-02
  3.01288539E-02  1.35034884E-09 -1.14711372E-09 -7.61063158E-03  1.91185877E-02
  4.81410498E-02 -2.27646851E-01 -2.27646903E-01  3.82733628E-01 -1.58861996E-01
 -1.58862035E-01  2.67226922E-01  2.13836173E-02 -2.14436084E-04 -2.14435896E-04
  1.64522750E-09 -9.07201785E-03  2.68427872E-02 -8.52037805E-02 -1.45979052E-01
 -1.72343860E-01 -1.72343855E-01  2.28840288E-02 -2.46067096E-01 -2.46067090E-01
  1.86908030E-02 -1.28092563E-02  4.58093005E-03  4.58093085E-03 -2.65774656E-09
  1.76822432E-03 -8.39478113E-02  5.63041504E-02  9.12767766E-01  2.61531127E-01
  2.61531121E-01 -4.62278337E-09  3.35907032E-01  3.35907018E-01  2.79144897E-08
  3.98523037E-03  3.67793462E-09  1.53818319E-09  1.26564555E-09 -1.12400623E-02
  2.68427894E-02 -8.52037865E-02 -1.45979033E-01 -1.72343832E-01 -1.72343828E-01
 -2.28840303E-02 -2.46067060E-01 -2.46067054E-01 -1.86907948E-02 -1.28092576E-02
 -4.58093118E-03 -4.58093117E-03  8.75850980E-10  1.76822819E-03 -5.16908949E-10
  1.70976544E-09 -4.29605044E-08 -1.86297282E-01  1.86297279E-01  1.11324398E-08
 -3.37541485E-01  3.37541468E-01  3.43661906E-08  7.66701180E-10 -1.13725242E-02
  1.13725267E-02  1.71759152E-02  2.81039351E-09  8.78982853E-10 -4.93906315E-09
  4.53493418E-08  3.14470759E-01 -3.14470767E-01 -2.62553811E-09  6.94473032E-01
 -6.94473079E-01  3.72513283E-08 -5.64646996E-10  1.96729360E-09 -2.80641062E-09
 -2.00150767E-03 -1.13326350E-09  2.54595952E-10  1.68284907E-09 -4.43343547E-09
 -1.86297280E-01  1.86297287E-01  3.30301377E-09 -3.37541477E-01  3.37541493E-01
 -4.12522840E-10 -3.46502360E-11  1.13725233E-02 -1.13725226E-02  1.71759190E-02
 -9.16374402E-10  6.79970454E-02 -5.63922260E-02 -1.98077750E+00 -1.00756408E-01
 -1.00756404E-01 -5.89850652E-02 -4.95258732E-01 -4.95258759E-01  4.61202149E-01
 -2.81481552E-02  2.11217768E-02  2.11217792E-02 -1.34242043E-09  6.96969404E-04
 -3.09958678E-10 -1.78276672E-08  1.91926994E-07 -1.18608612E-08  7.41044862E-10
  6.74707920E-02 -9.35588883E-08 -7.09106038E-08  2.91547705E+00  3.90915546E-09
 -6.32495565E-02 -6.32495563E-02  7.61560771E-10  3.64646765E-09 -6.79970406E-02
  5.63922163E-02  1.98077730E+00  1.00756408E-01  1.00756404E-01 -5.89850625E-02
  4.95258746E-01  4.95258733E-01  4.61202030E-01  2.81481496E-02  2.11217780E-02
  2.11217775E-02 -8.65444668E-10 -6.96972522E-04  8.42192766E-02 -5.39328246E-02
 -2.50948285E+00  3.71291877E-02  3.71291953E-02  7.08698041E-02 -1.68200029E-01
 -1.68200054E-01  1.23053632E+00 -4.19316864E-02  1.49845177E-02  1.49845178E-02
  5.31309949E-10 -2.91030951E-02 -7.57777778E-02 -1.14935649E-01  4.57293131E+00
  5.54087295E-03  5.54088704E-03  3.56005378E-09 -1.79359939E+00 -1.79359937E+00
 -1.36028286E-07  8.77789854E-02  3.30417673E-09  3.37145828E-09 -3.36966056E-10
  1.90839320E-02  8.42192812E-02 -5.39328245E-02 -2.50948303E+00  3.71291860E-02
  3.71291828E-02 -7.08698010E-02 -1.68200090E-01 -1.68200098E-01 -1.23053635E+00
 -4.19316876E-02 -1.49845210E-02 -1.49845197E-02 -8.87995968E-10 -2.91030981E-02
 -1.28052115E-09 -4.70830901E-09  2.02250859E-08 -8.77950748E-02  8.77950807E-02
 -7.53686319E-09  2.32365010E-03 -2.32363480E-03 -1.52032751E-08 -3.49999535E-10
  5.02529975E-02 -5.02529934E-02 -3.59704793E-02 -2.10956783E-09  1.99070274E-09
 -4.25867773E-08  3.07520572E-08 -6.89551241E-01  6.89551219E-01 -1.51566984E-08
  7.38803459E-01 -7.38803432E-01 -1.09655373E-08  2.01727475E-09 -3.29569859E-09
 -1.31132698E-10  5.86762953E-02  1.58535043E-09  7.20109075E-10 -4.28074624E-09
 -1.12309421E-08 -8.77950702E-02  8.77950723E-02  1.37307301E-09  2.32362635E-03
 -2.32364205E-03 -7.76555396E-09  4.05355803E-10 -5.02529953E-02  5.02529940E-02
 -3.59704805E-02 -6.22806030E-13  3.03349202E-02 -1.77735508E-01 -2.93010793E-01
 -2.43614747E-02 -2.43614647E-02 -6.99018718E-02 -5.66444448E-02 -5.66444707E-02
  4.00478624E-01  5.83950264E-02  1.83431335E-02  1.83431357E-02  1.87342987E-09
 -3.56758497E-02  2.08795696E-02 -6.72639858E-01  1.55437405E+00 -6.38404463E-01
 -6.38404495E-01 -4.02186285E-08  2.67219491E-01  2.67219536E-01 -1.86761902E-08
 -1.07430627E-01 -1.32699827E-08 -8.74022579E-09 -3.04014002E-09  3.84304006E-03
  3.03349247E-02 -1.77735514E-01 -2.93010836E-01 -2.43614593E-02 -2.43614716E-02
  6.99018469E-02 -5.66445174E-02 -5.66445074E-02 -4.00478637E-01  5.83950277E-02
 -1.83431262E-02 -1.83431289E-02  4.57900138E-10 -3.56758475E-02  5.42098401E-02
 -1.65688467E-01 -2.62464909E-01  1.13330349E-01  1.13330387E-01 -4.21908774E-02
 -4.30041401E-01 -4.30041465E-01  6.90132772E-01  3.02296118E-02 -6.33200487E-02
 -6.33200513E-02 -2.49169573E-09  4.19550823E-02 -1.18392525E-08  3.85247554E-07
 -1.01876336E-07 -8.21311803E-08 -7.02694354E-08  8.82059005E-01 -3.06245126E-08
 -7.62586729E-09 -1.51951714E-01 -6.02274374E-08  8.42977665E-02  8.42977702E-02
  2.49069280E-09  1.17258260E-08 -5.42098205E-02  1.65688480E-01  2.62464797E-01
 -1.13330487E-01 -1.13330478E-01 -4.21908005E-02  4.30041474E-01  4.30041454E-01
  6.90132365E-01 -3.02295610E-02 -6.33200112E-02 -6.33200113E-02 -2.02908464E-09
 -4.19550755E-02  3.16576194E-02  3.34944563E-02 -1.60178151E-01 -1.48360363E-01
 -1.48360347E-01 -9.25546736E-02 -1.55106810E-02 -1.55107023E-02  6.03524930E-01
  7.54679920E-02 -6.66042136E-02 -6.66042191E-02 -3.17243935E-09  1.71698923E-02
 -4.29633900E-02  1.38393831E+00 -4.82237600E-01 -1.81017439E-01 -1.81017417E-01
 -2.79337223E-07 -4.74453791E-02 -4.74453948E-02  3.46755372E-08 -1.67344199E-01
 -3.39542335E-08 -3.23899470E-08  2.26497290E-09  2.95170768E-02  3.16576530E-02
  3.34943643E-02 -1.60178326E-01 -1.48360281E-01 -1.48360281E-01  9.25546652E-02
 -1.55109734E-02 -1.55109722E-02 -6.03525301E-01  7.54680062E-02  6.66042588E-02
  6.66042604E-02  3.53441459E-10  1.71699228E-02 -1.27442477E-02  5.12704130E-02
  2.46925629E-01 -3.73324306E-01 -3.73324379E-01  7.27100978E-02  7.24655989E-01
  7.24656101E-01 -2.81387290E-01 -1.91133753E-03 -1.65702288E-02 -1.65702282E-02
 -9.93699992E-10 -1.80292482E-02 -5.42301732E-02 -3.79770707E-01 -6.36144545E-01
  1.52465221E-01  1.52465231E-01 -4.96553048E-08 -3.80338114E-01 -3.80338146E-01
  2.18085465E-08 -3.46606337E-01 -8.49618847E-09 -2.80404672E-08 -1.66185882E-09
 -2.14553575E-02 -1.27442441E-02  5.12704290E-02  2.46925617E-01 -3.73324380E-01
 -3.73324345E-01 -7.27101455E-02  7.24656070E-01  7.24656023E-01  2.81387313E-01
 -1.91133396E-03  1.65702370E-02  1.65702399E-02  8.28555336E-10 -1.80292379E-02
  3.58760481E-03 -4.77362442E-02 -2.90335666E-01  2.17461801E-02  2.17465693E-02
 -5.18752441E-01  1.05387534E-01  1.05386957E-01  9.50917668E-01  5.82075007E-03
  6.08720207E-02  6.08720076E-02 -5.30808078E-12 -4.63721897E-02  1.05630537E-08
 -4.26723254E-08  9.26883252E-08  6.01213898E-08  2.82283420E-08 -2.00074645E-01
 -8.96978472E-08  2.57045130E-08  5.57351742E-02  4.31253156E-08 -2.97886116E-01
 -2.97885986E-01  4.40339433E-10  1.83565129E-08 -3.58760897E-03  4.77362210E-02
  2.90335630E-01 -2.17462182E-02 -2.17464728E-02 -5.18752294E-01 -1.05387455E-01
 -1.05387102E-01  9.50917559E-01 -5.82078167E-03  6.08720144E-02  6.08719931E-02
 -8.13052278E-10  4.63721989E-02 -6.10791443E-09 -2.04641193E-09  1.89385601E-07
 -4.42133390E-01  4.42133330E-01  1.46456898E-07  6.36172783E-01 -6.36172731E-01
 -3.65090249E-07 -1.07366880E-08  2.57399283E-02 -2.57399666E-02 -2.63560458E-03
  1.72931940E-08  2.52140122E-09 -5.05472376E-08 -5.44387242E-08  6.19119967E-08
  1.80261400E-08  4.75394739E-08 -1.14980811E-07  3.12080417E-08 -3.54871117E-08
 -8.01798028E-09 -1.78946752E-01  1.78946968E-01  3.17368815E-09  1.42336023E-08
 -1.33657002E-10 -2.11645633E-08 -9.51687287E-08  4.42133252E-01 -4.42133301E-01
  2.33448011E-07 -6.36172526E-01  6.36172712E-01 -3.77007650E-07 -3.71604244E-09
  2.57399281E-02 -2.57399738E-02  2.63559903E-03 -1.43261403E-08 -6.67410782E-09
 -3.13810744E-08  2.32076621E-08 -4.79048073E-01  4.79048020E-01 -1.38260597E-07
  7.49145656E-01 -7.49145548E-01  6.52969810E-08 -2.79971869E-08 -1.29092871E-02
  1.29093001E-02 -3.02979706E-02  6.83564101E-09  1.88462588E-08 -1.01762523E-07
  2.15171274E-07  1.97328129E-01 -1.97327984E-01 -2.17723061E-08 -7.35722811E-01
  7.35722554E-01 -3.03505865E-08  4.31625505E-08  4.13286742E-08  2.89568960E-09
  4.75682787E-02  5.57028904E-08 -1.05513660E-09 -1.65095658E-08 -1.31201032E-07
 -4.79048161E-01  4.79048093E-01  2.18231622E-07  7.49145764E-01 -7.49145667E-01
 -2.71038323E-07 -2.38260345E-08  1.29092747E-02 -1.29092978E-02 -3.02979696E-02
  1.01318757E-09 -8.78297700E-03 -4.57960984E-02 -4.27727981E-01 -8.82698636E-02
 -8.82701943E-02 -6.63372442E-01  1.12427386E-01  1.12427888E-01  7.27284065E-01
 -9.61492337E-02  3.24737633E-02  3.24737688E-02  9.64624204E-09  9.43361711E-03
  7.10737131E-02 -3.30612234E-01  1.14408449E+00  2.30970133E-01  2.30970234E-01
  9.34076987E-09 -5.19725907E-01 -5.19726301E-01 -9.12323836E-08  1.93459121E-01
  5.65565560E-08  2.44418951E-08 -1.18881233E-08  2.05126172E-01 -8.78297185E-03
 -4.57960889E-02 -4.27728209E-01 -8.82699037E-02 -8.82701005E-02  6.63372557E-01
  1.12427438E-01  1.12427753E-01 -7.27284312E-01 -9.61492268E-02 -3.24737892E-02
 -3.24737766E-02  7.78019333E-09  9.43360814E-03 -7.18776629E-03 -1.25405404E-01
 -2.44459492E-01  4.75937297E-01  4.75937267E-01  2.67189299E-02 -6.11096319E-01